ITEM: TIMESTEP
50
ITEM: NUMBER OF ATOMS
250
ITEM: BOX BOUNDS pp pp pp
2.1246542862245481e+00 1.7875345713775143e+01
2.1246542862245481e+00 1.7875345713775143e+01
2.1246542862245481e+00 1.7875345713775143e+01
ITEM: ATOMS id type x y z 
1 1 2.04391 2.17247 2.22016 
2 1 3.65107 3.62326 3.62653 
3 1 5.32455 2.15551 2.16819 
11 1 2.22194 5.26242 2.22284 
13 1 5.3646 5.31755 2.10926 
51 1 2.08356 2.1543 5.33495 
53 1 5.22219 2.22001 5.21308 
61 1 2.24333 5.29498 5.269 
63 1 5.30424 5.25872 5.31955 
4 1 6.87501 3.7098 3.68309 
12 1 3.81552 6.89914 3.61281 
14 1 6.80368 6.86587 3.73061 
52 1 3.63269 3.64186 6.84492 
54 1 6.93579 3.72618 6.85153 
62 1 3.73175 6.83127 6.81101 
64 1 6.83498 6.89117 6.76964 
5 1 8.38937 2.13334 2.17407 
15 1 8.3964 5.22389 2.24565 
55 1 8.33461 2.02395 5.24627 
65 1 8.49824 5.33287 5.3656 
6 1 9.95672 3.66449 3.63591 
7 1 11.5512 2.04982 2.20089 
17 1 11.5555 5.29174 2.12328 
57 1 11.6083 2.11303 5.28969 
67 1 11.5834 5.35566 5.24777 
16 1 9.97357 6.84749 3.72175 
56 1 9.93517 3.60047 6.75573 
66 1 10.0066 6.90817 6.80414 
8 1 13.0996 3.788 3.66168 
9 1 14.7656 2.20872 2.13808 
10 1 16.2856 3.72402 3.68815 
19 1 14.689 5.30781 2.04656 
59 1 14.6881 2.07701 5.3809 
69 1 14.8584 5.2679 5.27638 
18 1 13.1949 6.84424 3.76306 
20 1 16.3318 6.78408 3.69206 
58 1 13.1255 3.76504 6.76918 
60 1 16.3845 3.65163 6.90024 
68 1 13.204 6.81861 6.79372 
70 1 16.3693 6.93098 6.7876 
21 1 2.18589 8.38378 2.11223 
23 1 5.30516 8.35403 2.00659 
71 1 2.16297 8.37532 5.20313 
73 1 5.35091 8.38927 5.27053 
22 1 3.68869 9.90158 3.62203 
31 1 2.17866 11.556 2.06475 
33 1 5.19582 11.5379 2.15703 
81 1 2.0532 11.5118 5.308 
83 1 5.15892 11.494 5.26961 
24 1 6.8241 9.92779 3.63239 
72 1 3.74623 9.9195 6.85749 
74 1 6.86085 9.92444 6.92006 
25 1 8.47448 8.33443 2.15497 
75 1 8.48157 8.53196 5.20838 
27 1 11.6433 8.35516 2.10667 
77 1 11.5728 8.51495 5.22814 
35 1 8.41894 11.5365 2.15004 
85 1 8.31848 11.6493 5.23107 
26 1 10.0335 10.0069 3.64025 
37 1 11.6272 11.6236 2.19888 
87 1 11.6214 11.6061 5.29113 
76 1 9.88408 10.0255 6.91808 
29 1 14.7552 8.47195 2.19022 
79 1 14.7465 8.45047 5.31126 
28 1 13.1737 10.0638 3.7769 
30 1 16.2774 9.9378 3.65279 
39 1 14.7931 11.6383 2.07964 
89 1 14.7655 11.5164 5.18899 
78 1 13.1031 9.91653 6.81945 
80 1 16.2304 10.0627 6.85146 
32 1 3.62822 13.1159 3.72125 
34 1 6.69653 13.0599 3.66673 
41 1 2.08561 14.7714 2.04932 
42 1 3.64405 16.3344 3.73367 
43 1 5.22625 14.7765 2.06126 
91 1 2.10248 14.7163 5.29092 
93 1 5.23487 14.7747 5.22962 
44 1 6.74457 16.3284 3.72292 
82 1 3.61833 13.2271 6.79924 
84 1 6.87613 13.1041 6.92517 
92 1 3.68937 16.3543 6.83756 
94 1 6.78903 16.3102 6.88598 
36 1 9.91866 13.1664 3.6393 
45 1 8.44007 14.7096 2.18853 
95 1 8.30358 14.626 5.35901 
46 1 9.9516 16.2589 3.6557 
47 1 11.6654 14.7528 2.18419 
97 1 11.5544 14.7228 5.182 
86 1 10.0813 13.123 6.85112 
96 1 9.96625 16.2804 6.76354 
38 1 13.2011 13.1511 3.64853 
40 1 16.3243 13.068 3.61258 
48 1 13.1923 16.3463 3.782 
49 1 14.8279 14.7191 2.19707 
50 1 16.3337 16.308 3.77171 
99 1 14.7587 14.7499 5.27156 
88 1 13.1463 13.0727 6.73496 
90 1 16.2135 13.1729 6.75169 
98 1 13.0672 16.2161 6.90607 
100 1 16.3052 16.2236 6.8544 
101 1 2.0475 2.02008 8.41522 
103 1 5.23238 2.12255 8.40292 
111 1 2.14011 5.25113 8.49901 
113 1 5.34313 5.19299 8.4265 
102 1 3.73633 3.80421 10.0785 
151 1 2.18804 2.16141 11.4947 
153 1 5.23493 2.10728 11.501 
161 1 2.09479 5.36297 11.6882 
163 1 5.32155 5.22294 11.7138 
104 1 6.88524 3.80024 10.1051 
112 1 3.73093 6.89147 10.0543 
114 1 6.89199 6.80325 9.9405 
105 1 8.33055 2.17042 8.44738 
115 1 8.46337 5.3369 8.46806 
107 1 11.5374 2.12354 8.45378 
117 1 11.5929 5.22342 8.29416 
155 1 8.41429 2.1769 11.4799 
165 1 8.47704 5.25269 11.5833 
106 1 9.99427 3.77638 9.88451 
157 1 11.4827 2.03251 11.5294 
167 1 11.5537 5.27417 11.489 
116 1 10.1216 6.83832 9.92191 
109 1 14.733 2.22122 8.35212 
119 1 14.724 5.31733 8.39009 
108 1 13.0818 3.7857 9.91609 
110 1 16.2649 3.75075 10.0981 
159 1 14.6368 2.21652 11.5507 
169 1 14.6813 5.25339 11.6526 
118 1 13.1385 6.88637 10.0301 
120 1 16.2753 6.84909 9.88636 
121 1 2.20613 8.43706 8.3279 
123 1 5.26109 8.45366 8.51692 
131 1 2.0107 11.6277 8.44631 
133 1 5.16586 11.6833 8.35704 
171 1 2.08433 8.37925 11.5224 
173 1 5.29055 8.41057 11.556 
122 1 3.71049 9.94187 10.0692 
181 1 2.05974 11.5676 11.5212 
183 1 5.32882 11.5447 11.5574 
124 1 6.90179 10.0377 9.96404 
125 1 8.3657 8.4064 8.40939 
127 1 11.6545 8.45394 8.41028 
135 1 8.3395 11.5919 8.46486 
137 1 11.6369 11.4928 8.404 
175 1 8.43724 8.45132 11.5019 
177 1 11.4994 8.46624 11.6616 
185 1 8.55795 11.6159 11.5211 
126 1 9.97632 9.92577 9.93232 
187 1 11.664 11.5092 11.5993 
129 1 14.6818 8.43358 8.38589 
139 1 14.6972 11.5602 8.5278 
179 1 14.6218 8.42059 11.5515 
128 1 13.0918 10.0021 10.0289 
130 1 16.3035 9.92638 9.93096 
189 1 14.7999 11.5374 11.6685 
141 1 2.17661 14.7085 8.48203 
143 1 5.351 14.7891 8.47299 
132 1 3.65739 13.094 10.0429 
134 1 6.79236 13.1341 10.0666 
142 1 3.63887 16.3451 10.0224 
191 1 2.0811 14.6759 11.6862 
193 1 5.34406 14.7499 11.5896 
144 1 6.87075 16.3976 9.99643 
145 1 8.44207 14.6661 8.48668 
147 1 11.6178 14.743 8.49091 
136 1 9.9865 13.15 9.93809 
195 1 8.56043 14.7099 11.5089 
146 1 9.98132 16.3445 9.9586 
197 1 11.6719 14.6383 11.5987 
149 1 14.6933 14.6821 8.34435 
138 1 13.1358 13.1025 9.94659 
140 1 16.2704 13.2316 10.0439 
148 1 13.1629 16.2916 9.9657 
150 1 16.2208 16.235 9.96162 
199 1 14.7953 14.8257 11.6744 
152 1 3.67705 3.633 13.1722 
154 1 6.82041 3.6016 13.2024 
162 1 3.8037 6.81968 13.217 
164 1 6.93559 6.95039 13.1384 
201 1 2.17671 2.09911 14.7542 
202 1 3.69792 3.61247 16.3592 
203 1 5.24955 2.05604 14.695 
211 1 2.0388 5.21488 14.8426 
213 1 5.32682 5.26676 14.7998 
204 1 6.8891 3.71658 16.2627 
212 1 3.65777 6.81729 16.2734 
214 1 6.94372 6.82037 16.3678 
156 1 9.91972 3.68295 13.1548 
166 1 10.0967 6.80147 13.1385 
205 1 8.38707 2.17026 14.7156 
215 1 8.40934 5.27589 14.7296 
206 1 10.067 3.7842 16.3128 
207 1 11.6227 2.22229 14.7092 
217 1 11.5814 5.21233 14.6622 
216 1 9.96452 6.81149 16.2641 
158 1 13.0986 3.59932 13.1154 
160 1 16.2446 3.63026 13.2607 
168 1 13.1828 6.80103 13.2398 
170 1 16.2374 6.7992 13.1025 
208 1 13.0532 3.67256 16.3464 
209 1 14.8177 2.14237 14.8368 
210 1 16.237 3.7673 16.3446 
219 1 14.6473 5.31196 14.7039 
218 1 13.1499 6.77305 16.3785 
220 1 16.2948 6.87327 16.2595 
172 1 3.77416 10.0475 13.1458 
174 1 6.93927 10.1182 13.0722 
221 1 2.05329 8.32112 14.6707 
223 1 5.26731 8.46897 14.669 
222 1 3.65432 9.97569 16.1696 
231 1 2.06625 11.6139 14.6154 
233 1 5.29596 11.6037 14.7728 
224 1 6.76149 9.92631 16.2717 
176 1 9.95691 9.96962 13.1025 
225 1 8.43439 8.39349 14.718 
227 1 11.583 8.43959 14.6912 
235 1 8.38454 11.5295 14.784 
226 1 9.94352 10.0865 16.2295 
237 1 11.6154 11.6471 14.7173 
178 1 13.1971 10.0342 13.2434 
180 1 16.3987 9.985 13.086 
229 1 14.6571 8.49128 14.8239 
228 1 13.0742 9.93485 16.4243 
230 1 16.2681 10.0353 16.2418 
239 1 14.656 11.5221 14.7757 
182 1 3.77749 13.2034 13.1638 
184 1 6.89646 13.2129 13.2215 
192 1 3.80269 16.1929 13.1922 
194 1 6.93268 16.2515 13.1265 
232 1 3.656 13.0921 16.3084 
234 1 6.78835 13.1679 16.2487 
241 1 2.13547 14.765 14.802 
242 1 3.62424 16.3784 16.3381 
243 1 5.18238 14.6791 14.8401 
244 1 6.85795 16.3426 16.2571 
186 1 10.0683 13.0893 13.227 
196 1 10.0535 16.3744 13.2117 
236 1 9.9057 13.2435 16.3002 
245 1 8.4172 14.8004 14.6572 
246 1 10.0722 16.384 16.2145 
247 1 11.6183 14.7992 14.6749 
188 1 13.1798 13.1727 13.1021 
190 1 16.2378 13.187 13.2085 
198 1 13.2432 16.3197 13.2037 
200 1 16.4128 16.3988 13.0869 
238 1 13.1972 13.1214 16.3365 
240 1 16.2892 13.0768 16.2137 
248 1 13.1758 16.2101 16.3253 
249 1 14.8358 14.7795 14.8108 
250 1 16.3044 16.3768 16.4036 
