ITEM: TIMESTEP
0
ITEM: NUMBER OF ATOMS
500
ITEM: BOX BOUNDS pp pp pp
-2.9813732202599519e-01 2.0298137322026044e+01
-2.9813732202599519e-01 2.0298137322026044e+01
-2.9813732202599519e-01 2.0298137322026044e+01
ITEM: ATOMS id type x y z 
1 1 -0.298137 -0.298137 -0.298137 
2 1 1.76149 1.76149 -0.298137 
3 1 1.76149 -0.298137 1.76149 
4 1 -0.298137 1.76149 1.76149 
21 1 -0.298137 3.82112 -0.298137 
23 1 1.76149 3.82112 1.76149 
51 1 -0.298137 -0.298137 3.82112 
52 1 1.76149 1.76149 3.82112 
71 1 -0.298137 3.82112 3.82112 
5 1 3.82112 -0.298137 -0.298137 
8 1 3.82112 1.76149 1.76149 
25 1 3.82112 3.82112 -0.298137 
55 1 3.82112 -0.298137 3.82112 
75 1 3.82112 3.82112 3.82112 
6 1 5.88075 1.76149 -0.298137 
7 1 5.88075 -0.298137 1.76149 
27 1 5.88075 3.82112 1.76149 
56 1 5.88075 1.76149 3.82112 
9 1 7.94037 -0.298137 -0.298137 
12 1 7.94037 1.76149 1.76149 
29 1 7.94037 3.82112 -0.298137 
59 1 7.94037 -0.298137 3.82112 
79 1 7.94037 3.82112 3.82112 
10 1 10 1.76149 -0.298137 
11 1 10 -0.298137 1.76149 
31 1 10 3.82112 1.76149 
60 1 10 1.76149 3.82112 
13 1 12.0596 -0.298137 -0.298137 
14 1 14.1193 1.76149 -0.298137 
15 1 14.1193 -0.298137 1.76149 
16 1 12.0596 1.76149 1.76149 
33 1 12.0596 3.82112 -0.298137 
35 1 14.1193 3.82112 1.76149 
63 1 12.0596 -0.298137 3.82112 
64 1 14.1193 1.76149 3.82112 
83 1 12.0596 3.82112 3.82112 
17 1 16.1789 -0.298137 -0.298137 
18 1 18.2385 1.76149 -0.298137 
19 1 18.2385 -0.298137 1.76149 
20 1 16.1789 1.76149 1.76149 
37 1 16.1789 3.82112 -0.298137 
39 1 18.2385 3.82112 1.76149 
67 1 16.1789 -0.298137 3.82112 
68 1 18.2385 1.76149 3.82112 
87 1 16.1789 3.82112 3.82112 
22 1 1.76149 5.88075 -0.298137 
24 1 -0.298137 5.88075 1.76149 
41 1 -0.298137 7.94037 -0.298137 
42 1 1.76149 7.94037 1.76149 
72 1 1.76149 5.88075 3.82112 
91 1 -0.298137 7.94037 3.82112 
251 1 1.76149 10 -0.298137 
252 1 -0.298137 10 1.76149 
301 1 1.76149 10 3.82112 
28 1 3.82112 5.88075 1.76149 
43 1 3.82112 7.94037 -0.298137 
93 1 3.82112 7.94037 3.82112 
26 1 5.88075 5.88075 -0.298137 
44 1 5.88075 7.94037 1.76149 
76 1 5.88075 5.88075 3.82112 
254 1 3.82112 10 1.76149 
253 1 5.88075 10 -0.298137 
303 1 5.88075 10 3.82112 
32 1 7.94037 5.88075 1.76149 
45 1 7.94037 7.94037 -0.298137 
95 1 7.94037 7.94037 3.82112 
30 1 10 5.88075 -0.298137 
46 1 10 7.94037 1.76149 
80 1 10 5.88075 3.82112 
256 1 7.94037 10 1.76149 
255 1 10 10 -0.298137 
305 1 10 10 3.82112 
34 1 14.1193 5.88075 -0.298137 
36 1 12.0596 5.88075 1.76149 
47 1 12.0596 7.94037 -0.298137 
48 1 14.1193 7.94037 1.76149 
84 1 14.1193 5.88075 3.82112 
97 1 12.0596 7.94037 3.82112 
257 1 14.1193 10 -0.298137 
258 1 12.0596 10 1.76149 
307 1 14.1193 10 3.82112 
38 1 18.2385 5.88075 -0.298137 
40 1 16.1789 5.88075 1.76149 
49 1 16.1789 7.94037 -0.298137 
50 1 18.2385 7.94037 1.76149 
88 1 18.2385 5.88075 3.82112 
99 1 16.1789 7.94037 3.82112 
259 1 18.2385 10 -0.298137 
260 1 16.1789 10 1.76149 
309 1 18.2385 10 3.82112 
53 1 1.76149 -0.298137 5.88075 
54 1 -0.298137 1.76149 5.88075 
73 1 1.76149 3.82112 5.88075 
101 1 -0.298137 -0.298137 7.94037 
102 1 1.76149 1.76149 7.94037 
111 1 -0.298137 3.82112 7.94037 
126 1 1.76149 -0.298137 10 
127 1 -0.298137 1.76149 10 
136 1 1.76149 3.82112 10 
58 1 3.82112 1.76149 5.88075 
103 1 3.82112 -0.298137 7.94037 
113 1 3.82112 3.82112 7.94037 
57 1 5.88075 -0.298137 5.88075 
77 1 5.88075 3.82112 5.88075 
104 1 5.88075 1.76149 7.94037 
129 1 3.82112 1.76149 10 
128 1 5.88075 -0.298137 10 
138 1 5.88075 3.82112 10 
62 1 7.94037 1.76149 5.88075 
105 1 7.94037 -0.298137 7.94037 
115 1 7.94037 3.82112 7.94037 
61 1 10 -0.298137 5.88075 
81 1 10 3.82112 5.88075 
106 1 10 1.76149 7.94037 
131 1 7.94037 1.76149 10 
130 1 10 -0.298137 10 
140 1 10 3.82112 10 
65 1 14.1193 -0.298137 5.88075 
66 1 12.0596 1.76149 5.88075 
85 1 14.1193 3.82112 5.88075 
107 1 12.0596 -0.298137 7.94037 
108 1 14.1193 1.76149 7.94037 
117 1 12.0596 3.82112 7.94037 
132 1 14.1193 -0.298137 10 
133 1 12.0596 1.76149 10 
142 1 14.1193 3.82112 10 
69 1 18.2385 -0.298137 5.88075 
70 1 16.1789 1.76149 5.88075 
89 1 18.2385 3.82112 5.88075 
109 1 16.1789 -0.298137 7.94037 
110 1 18.2385 1.76149 7.94037 
119 1 16.1789 3.82112 7.94037 
134 1 18.2385 -0.298137 10 
135 1 16.1789 1.76149 10 
144 1 18.2385 3.82112 10 
74 1 -0.298137 5.88075 5.88075 
92 1 1.76149 7.94037 5.88075 
112 1 1.76149 5.88075 7.94037 
121 1 -0.298137 7.94037 7.94037 
302 1 -0.298137 10 5.88075 
351 1 1.76149 10 7.94037 
137 1 -0.298137 5.88075 10 
146 1 1.76149 7.94037 10 
376 1 -0.298137 10 10 
78 1 3.82112 5.88075 5.88075 
122 1 3.82112 7.94037 7.94037 
94 1 5.88075 7.94037 5.88075 
114 1 5.88075 5.88075 7.94037 
304 1 3.82112 10 5.88075 
352 1 5.88075 10 7.94037 
139 1 3.82112 5.88075 10 
147 1 5.88075 7.94037 10 
377 1 3.82112 10 10 
82 1 7.94037 5.88075 5.88075 
123 1 7.94037 7.94037 7.94037 
96 1 10 7.94037 5.88075 
116 1 10 5.88075 7.94037 
306 1 7.94037 10 5.88075 
353 1 10 10 7.94037 
378 1 7.94037 10 10 
141 1 7.94037 5.88075 10 
148 1 10 7.94037 10 
86 1 12.0596 5.88075 5.88075 
98 1 14.1193 7.94037 5.88075 
118 1 14.1193 5.88075 7.94037 
124 1 12.0596 7.94037 7.94037 
308 1 12.0596 10 5.88075 
354 1 14.1193 10 7.94037 
379 1 12.0596 10 10 
143 1 12.0596 5.88075 10 
149 1 14.1193 7.94037 10 
90 1 16.1789 5.88075 5.88075 
100 1 18.2385 7.94037 5.88075 
120 1 18.2385 5.88075 7.94037 
125 1 16.1789 7.94037 7.94037 
355 1 18.2385 10 7.94037 
310 1 16.1789 10 5.88075 
380 1 16.1789 10 10 
145 1 16.1789 5.88075 10 
150 1 18.2385 7.94037 10 
151 1 -0.298137 -0.298137 12.0596 
152 1 1.76149 1.76149 12.0596 
153 1 1.76149 -0.298137 14.1193 
154 1 -0.298137 1.76149 14.1193 
171 1 -0.298137 3.82112 12.0596 
173 1 1.76149 3.82112 14.1193 
155 1 3.82112 -0.298137 12.0596 
158 1 3.82112 1.76149 14.1193 
175 1 3.82112 3.82112 12.0596 
156 1 5.88075 1.76149 12.0596 
157 1 5.88075 -0.298137 14.1193 
177 1 5.88075 3.82112 14.1193 
159 1 7.94037 -0.298137 12.0596 
162 1 7.94037 1.76149 14.1193 
179 1 7.94037 3.82112 12.0596 
160 1 10 1.76149 12.0596 
161 1 10 -0.298137 14.1193 
181 1 10 3.82112 14.1193 
163 1 12.0596 -0.298137 12.0596 
164 1 14.1193 1.76149 12.0596 
165 1 14.1193 -0.298137 14.1193 
166 1 12.0596 1.76149 14.1193 
183 1 12.0596 3.82112 12.0596 
185 1 14.1193 3.82112 14.1193 
167 1 16.1789 -0.298137 12.0596 
168 1 18.2385 1.76149 12.0596 
169 1 18.2385 -0.298137 14.1193 
170 1 16.1789 1.76149 14.1193 
187 1 16.1789 3.82112 12.0596 
189 1 18.2385 3.82112 14.1193 
172 1 1.76149 5.88075 12.0596 
174 1 -0.298137 5.88075 14.1193 
191 1 -0.298137 7.94037 12.0596 
192 1 1.76149 7.94037 14.1193 
402 1 -0.298137 10 14.1193 
401 1 1.76149 10 12.0596 
403 1 5.88075 10 12.0596 
404 1 3.82112 10 14.1193 
178 1 3.82112 5.88075 14.1193 
193 1 3.82112 7.94037 12.0596 
176 1 5.88075 5.88075 12.0596 
194 1 5.88075 7.94037 14.1193 
405 1 10 10 12.0596 
406 1 7.94037 10 14.1193 
182 1 7.94037 5.88075 14.1193 
195 1 7.94037 7.94037 12.0596 
180 1 10 5.88075 12.0596 
196 1 10 7.94037 14.1193 
408 1 12.0596 10 14.1193 
407 1 14.1193 10 12.0596 
184 1 14.1193 5.88075 12.0596 
186 1 12.0596 5.88075 14.1193 
197 1 12.0596 7.94037 12.0596 
198 1 14.1193 7.94037 14.1193 
410 1 16.1789 10 14.1193 
409 1 18.2385 10 12.0596 
188 1 18.2385 5.88075 12.0596 
190 1 16.1789 5.88075 14.1193 
199 1 16.1789 7.94037 12.0596 
200 1 18.2385 7.94037 14.1193 
201 1 -0.298137 -0.298137 16.1789 
202 1 1.76149 1.76149 16.1789 
203 1 1.76149 -0.298137 18.2385 
204 1 -0.298137 1.76149 18.2385 
221 1 -0.298137 3.82112 16.1789 
223 1 1.76149 3.82112 18.2385 
205 1 3.82112 -0.298137 16.1789 
208 1 3.82112 1.76149 18.2385 
225 1 3.82112 3.82112 16.1789 
206 1 5.88075 1.76149 16.1789 
207 1 5.88075 -0.298137 18.2385 
227 1 5.88075 3.82112 18.2385 
209 1 7.94037 -0.298137 16.1789 
212 1 7.94037 1.76149 18.2385 
229 1 7.94037 3.82112 16.1789 
210 1 10 1.76149 16.1789 
211 1 10 -0.298137 18.2385 
231 1 10 3.82112 18.2385 
213 1 12.0596 -0.298137 16.1789 
214 1 14.1193 1.76149 16.1789 
215 1 14.1193 -0.298137 18.2385 
216 1 12.0596 1.76149 18.2385 
233 1 12.0596 3.82112 16.1789 
235 1 14.1193 3.82112 18.2385 
217 1 16.1789 -0.298137 16.1789 
218 1 18.2385 1.76149 16.1789 
219 1 18.2385 -0.298137 18.2385 
220 1 16.1789 1.76149 18.2385 
237 1 16.1789 3.82112 16.1789 
239 1 18.2385 3.82112 18.2385 
452 1 -0.298137 10 18.2385 
451 1 1.76149 10 16.1789 
222 1 1.76149 5.88075 16.1789 
224 1 -0.298137 5.88075 18.2385 
241 1 -0.298137 7.94037 16.1789 
242 1 1.76149 7.94037 18.2385 
453 1 5.88075 10 16.1789 
454 1 3.82112 10 18.2385 
228 1 3.82112 5.88075 18.2385 
243 1 3.82112 7.94037 16.1789 
226 1 5.88075 5.88075 16.1789 
244 1 5.88075 7.94037 18.2385 
455 1 10 10 16.1789 
456 1 7.94037 10 18.2385 
232 1 7.94037 5.88075 18.2385 
245 1 7.94037 7.94037 16.1789 
230 1 10 5.88075 16.1789 
246 1 10 7.94037 18.2385 
458 1 12.0596 10 18.2385 
457 1 14.1193 10 16.1789 
248 1 14.1193 7.94037 18.2385 
234 1 14.1193 5.88075 16.1789 
236 1 12.0596 5.88075 18.2385 
247 1 12.0596 7.94037 16.1789 
460 1 16.1789 10 18.2385 
459 1 18.2385 10 16.1789 
250 1 18.2385 7.94037 18.2385 
249 1 16.1789 7.94037 16.1789 
240 1 16.1789 5.88075 18.2385 
238 1 18.2385 5.88075 16.1789 
261 1 -0.298137 12.0596 -0.298137 
262 1 1.76149 14.1193 -0.298137 
263 1 1.76149 12.0596 1.76149 
264 1 -0.298137 14.1193 1.76149 
311 1 -0.298137 12.0596 3.82112 
312 1 1.76149 14.1193 3.82112 
265 1 3.82112 12.0596 -0.298137 
268 1 3.82112 14.1193 1.76149 
315 1 3.82112 12.0596 3.82112 
266 1 5.88075 14.1193 -0.298137 
267 1 5.88075 12.0596 1.76149 
316 1 5.88075 14.1193 3.82112 
269 1 7.94037 12.0596 -0.298137 
272 1 7.94037 14.1193 1.76149 
319 1 7.94037 12.0596 3.82112 
270 1 10 14.1193 -0.298137 
271 1 10 12.0596 1.76149 
320 1 10 14.1193 3.82112 
273 1 12.0596 12.0596 -0.298137 
274 1 14.1193 14.1193 -0.298137 
275 1 14.1193 12.0596 1.76149 
276 1 12.0596 14.1193 1.76149 
323 1 12.0596 12.0596 3.82112 
324 1 14.1193 14.1193 3.82112 
277 1 16.1789 12.0596 -0.298137 
278 1 18.2385 14.1193 -0.298137 
279 1 18.2385 12.0596 1.76149 
280 1 16.1789 14.1193 1.76149 
327 1 16.1789 12.0596 3.82112 
328 1 18.2385 14.1193 3.82112 
281 1 -0.298137 16.1789 -0.298137 
282 1 1.76149 18.2385 -0.298137 
283 1 1.76149 16.1789 1.76149 
284 1 -0.298137 18.2385 1.76149 
331 1 -0.298137 16.1789 3.82112 
332 1 1.76149 18.2385 3.82112 
285 1 3.82112 16.1789 -0.298137 
288 1 3.82112 18.2385 1.76149 
335 1 3.82112 16.1789 3.82112 
286 1 5.88075 18.2385 -0.298137 
287 1 5.88075 16.1789 1.76149 
336 1 5.88075 18.2385 3.82112 
289 1 7.94037 16.1789 -0.298137 
292 1 7.94037 18.2385 1.76149 
339 1 7.94037 16.1789 3.82112 
290 1 10 18.2385 -0.298137 
291 1 10 16.1789 1.76149 
340 1 10 18.2385 3.82112 
293 1 12.0596 16.1789 -0.298137 
294 1 14.1193 18.2385 -0.298137 
295 1 14.1193 16.1789 1.76149 
296 1 12.0596 18.2385 1.76149 
343 1 12.0596 16.1789 3.82112 
344 1 14.1193 18.2385 3.82112 
297 1 16.1789 16.1789 -0.298137 
298 1 18.2385 18.2385 -0.298137 
299 1 18.2385 16.1789 1.76149 
300 1 16.1789 18.2385 1.76149 
347 1 16.1789 16.1789 3.82112 
348 1 18.2385 18.2385 3.82112 
313 1 1.76149 12.0596 5.88075 
314 1 -0.298137 14.1193 5.88075 
356 1 -0.298137 12.0596 7.94037 
357 1 1.76149 14.1193 7.94037 
381 1 1.76149 12.0596 10 
382 1 -0.298137 14.1193 10 
318 1 3.82112 14.1193 5.88075 
358 1 3.82112 12.0596 7.94037 
317 1 5.88075 12.0596 5.88075 
359 1 5.88075 14.1193 7.94037 
384 1 3.82112 14.1193 10 
383 1 5.88075 12.0596 10 
322 1 7.94037 14.1193 5.88075 
360 1 7.94037 12.0596 7.94037 
321 1 10 12.0596 5.88075 
361 1 10 14.1193 7.94037 
386 1 7.94037 14.1193 10 
385 1 10 12.0596 10 
325 1 14.1193 12.0596 5.88075 
326 1 12.0596 14.1193 5.88075 
362 1 12.0596 12.0596 7.94037 
363 1 14.1193 14.1193 7.94037 
387 1 14.1193 12.0596 10 
388 1 12.0596 14.1193 10 
365 1 18.2385 14.1193 7.94037 
364 1 16.1789 12.0596 7.94037 
330 1 16.1789 14.1193 5.88075 
329 1 18.2385 12.0596 5.88075 
389 1 18.2385 12.0596 10 
390 1 16.1789 14.1193 10 
367 1 1.76149 18.2385 7.94037 
366 1 -0.298137 16.1789 7.94037 
334 1 -0.298137 18.2385 5.88075 
333 1 1.76149 16.1789 5.88075 
391 1 1.76149 16.1789 10 
392 1 -0.298137 18.2385 10 
369 1 5.88075 18.2385 7.94037 
337 1 5.88075 16.1789 5.88075 
368 1 3.82112 16.1789 7.94037 
338 1 3.82112 18.2385 5.88075 
394 1 3.82112 18.2385 10 
393 1 5.88075 16.1789 10 
371 1 10 18.2385 7.94037 
341 1 10 16.1789 5.88075 
370 1 7.94037 16.1789 7.94037 
342 1 7.94037 18.2385 5.88075 
396 1 7.94037 18.2385 10 
395 1 10 16.1789 10 
373 1 14.1193 18.2385 7.94037 
372 1 12.0596 16.1789 7.94037 
346 1 12.0596 18.2385 5.88075 
345 1 14.1193 16.1789 5.88075 
397 1 14.1193 16.1789 10 
398 1 12.0596 18.2385 10 
375 1 18.2385 18.2385 7.94037 
374 1 16.1789 16.1789 7.94037 
350 1 16.1789 18.2385 5.88075 
349 1 18.2385 16.1789 5.88075 
399 1 18.2385 16.1789 10 
400 1 16.1789 18.2385 10 
411 1 -0.298137 12.0596 12.0596 
412 1 1.76149 14.1193 12.0596 
413 1 1.76149 12.0596 14.1193 
414 1 -0.298137 14.1193 14.1193 
415 1 3.82112 12.0596 12.0596 
418 1 3.82112 14.1193 14.1193 
416 1 5.88075 14.1193 12.0596 
417 1 5.88075 12.0596 14.1193 
419 1 7.94037 12.0596 12.0596 
422 1 7.94037 14.1193 14.1193 
420 1 10 14.1193 12.0596 
421 1 10 12.0596 14.1193 
423 1 12.0596 12.0596 12.0596 
424 1 14.1193 14.1193 12.0596 
425 1 14.1193 12.0596 14.1193 
426 1 12.0596 14.1193 14.1193 
427 1 16.1789 12.0596 12.0596 
428 1 18.2385 14.1193 12.0596 
429 1 18.2385 12.0596 14.1193 
430 1 16.1789 14.1193 14.1193 
431 1 -0.298137 16.1789 12.0596 
432 1 1.76149 18.2385 12.0596 
433 1 1.76149 16.1789 14.1193 
434 1 -0.298137 18.2385 14.1193 
435 1 3.82112 16.1789 12.0596 
438 1 3.82112 18.2385 14.1193 
436 1 5.88075 18.2385 12.0596 
437 1 5.88075 16.1789 14.1193 
439 1 7.94037 16.1789 12.0596 
442 1 7.94037 18.2385 14.1193 
440 1 10 18.2385 12.0596 
441 1 10 16.1789 14.1193 
443 1 12.0596 16.1789 12.0596 
444 1 14.1193 18.2385 12.0596 
445 1 14.1193 16.1789 14.1193 
446 1 12.0596 18.2385 14.1193 
447 1 16.1789 16.1789 12.0596 
448 1 18.2385 18.2385 12.0596 
449 1 18.2385 16.1789 14.1193 
450 1 16.1789 18.2385 14.1193 
464 1 -0.298137 14.1193 18.2385 
463 1 1.76149 12.0596 18.2385 
461 1 -0.298137 12.0596 16.1789 
462 1 1.76149 14.1193 16.1789 
467 1 5.88075 12.0596 18.2385 
466 1 5.88075 14.1193 16.1789 
468 1 3.82112 14.1193 18.2385 
465 1 3.82112 12.0596 16.1789 
471 1 10 12.0596 18.2385 
470 1 10 14.1193 16.1789 
472 1 7.94037 14.1193 18.2385 
469 1 7.94037 12.0596 16.1789 
476 1 12.0596 14.1193 18.2385 
475 1 14.1193 12.0596 18.2385 
474 1 14.1193 14.1193 16.1789 
473 1 12.0596 12.0596 16.1789 
477 1 16.1789 12.0596 16.1789 
478 1 18.2385 14.1193 16.1789 
479 1 18.2385 12.0596 18.2385 
480 1 16.1789 14.1193 18.2385 
481 1 -0.298137 16.1789 16.1789 
482 1 1.76149 18.2385 16.1789 
484 1 -0.298137 18.2385 18.2385 
483 1 1.76149 16.1789 18.2385 
487 1 5.88075 16.1789 18.2385 
486 1 5.88075 18.2385 16.1789 
488 1 3.82112 18.2385 18.2385 
485 1 3.82112 16.1789 16.1789 
491 1 10 16.1789 18.2385 
490 1 10 18.2385 16.1789 
492 1 7.94037 18.2385 18.2385 
489 1 7.94037 16.1789 16.1789 
496 1 12.0596 18.2385 18.2385 
495 1 14.1193 16.1789 18.2385 
494 1 14.1193 18.2385 16.1789 
493 1 12.0596 16.1789 16.1789 
500 1 16.1789 18.2385 18.2385 
499 1 18.2385 16.1789 18.2385 
498 1 18.2385 18.2385 16.1789 
497 1 16.1789 16.1789 16.1789 
ITEM: TIMESTEP
50
ITEM: NUMBER OF ATOMS
500
ITEM: BOX BOUNDS pp pp pp
-2.9257636771779616e-01 2.0292576367717835e+01
-2.9257636771779616e-01 2.0292576367717835e+01
-2.9257636771779616e-01 2.0292576367717835e+01
ITEM: ATOMS id type x y z 
1 1 -0.412061 -0.221498 -0.174694 
2 1 1.6262 1.60548 -0.440545 
3 1 1.84158 -0.292586 1.87398 
4 1 -0.217748 1.70707 1.67996 
21 1 -0.16649 3.75748 -0.273613 
23 1 1.79233 3.71078 1.66073 
51 1 -0.327517 -0.216844 3.90184 
52 1 1.64629 1.68291 3.7642 
71 1 -0.252862 3.73252 3.75103 
5 1 3.75535 -0.232376 -0.149631 
8 1 3.73743 1.86694 1.70088 
25 1 3.84564 3.70803 -0.221826 
55 1 3.70918 -0.405573 3.78074 
75 1 3.88031 3.87855 3.71032 
6 1 5.79388 1.70838 -0.411128 
7 1 5.83807 -0.356586 1.84519 
27 1 5.99743 3.73026 1.74447 
56 1 5.79076 1.64856 3.74143 
9 1 8.05533 -0.193438 -0.305967 
12 1 8.0745 1.8474 1.66703 
29 1 7.93784 3.87273 -0.255771 
59 1 7.88614 -0.355347 3.93836 
79 1 7.95827 3.85129 3.88389 
10 1 10.0477 1.77485 -0.382166 
11 1 10.1118 -0.337539 1.88064 
31 1 10.0697 3.83133 1.72786 
60 1 10.0878 1.63292 3.89303 
13 1 12.1723 -0.191992 -0.316207 
14 1 14.0236 1.82135 -0.248945 
15 1 14.0382 -0.386508 1.91519 
16 1 11.998 1.76357 1.82472 
33 1 11.9356 3.79693 -0.247102 
35 1 14.1413 3.81631 1.82734 
63 1 12.1119 -0.271234 3.94281 
64 1 14.0732 1.84506 3.7001 
83 1 11.9206 3.7858 3.77783 
17 1 16.1671 -0.277517 -0.33138 
18 1 18.2583 1.73037 -0.230901 
19 1 18.1227 -0.302739 1.67196 
20 1 16.1924 1.68404 1.80803 
37 1 16.249 3.85582 -0.174711 
39 1 18.3264 3.92843 1.70614 
67 1 16.1865 -0.213916 3.85221 
68 1 18.3309 1.70571 3.72364 
87 1 16.3128 3.83713 3.8411 
22 1 1.75758 5.79389 -0.376603 
24 1 -0.275306 5.82283 1.68089 
41 1 -0.348151 8.00624 -0.408546 
42 1 1.72541 7.97863 1.80356 
72 1 1.81455 5.7552 3.84853 
91 1 -0.321011 7.88225 3.91364 
251 1 1.75797 9.91218 -0.375225 
252 1 -0.312587 9.97468 1.8505 
301 1 1.72187 9.90178 3.77909 
28 1 3.86099 5.98348 1.86313 
43 1 3.7806 7.97967 -0.400426 
93 1 3.78949 8.04692 3.78754 
26 1 5.89403 5.86708 -0.338003 
44 1 5.75155 8.06008 1.80011 
76 1 5.72738 5.8893 3.92593 
254 1 3.6775 10.0288 1.60425 
253 1 5.97036 10.0722 -0.309043 
303 1 5.76993 10.1357 3.8043 
32 1 7.86985 5.82718 1.82846 
45 1 8.04064 7.8636 -0.196659 
95 1 7.78264 7.8257 3.90652 
30 1 9.91326 5.84096 -0.332823 
46 1 9.98969 7.89678 1.71459 
80 1 9.91129 5.93797 3.82022 
256 1 8.01256 9.92054 1.85916 
255 1 9.99246 10.0794 -0.318338 
305 1 9.92812 9.99436 3.74657 
34 1 13.9864 5.74145 -0.304634 
36 1 11.9553 5.92771 1.66199 
47 1 12.1449 7.98859 -0.173825 
48 1 14.1511 7.94088 1.88608 
84 1 14.1924 5.83742 3.87925 
97 1 12.049 7.95649 3.69041 
257 1 14.2657 9.89773 -0.311477 
258 1 12.1714 10.1021 1.79829 
307 1 14.1543 9.95081 3.76684 
38 1 18.2967 5.83382 -0.404694 
40 1 16.1475 5.78609 1.66847 
49 1 16.2737 7.81624 -0.216339 
50 1 18.2994 7.90871 1.82126 
88 1 18.2312 5.79616 3.70577 
99 1 16.2553 7.97797 3.85621 
259 1 18.1574 9.96288 -0.252174 
260 1 16.252 9.98165 1.80432 
309 1 18.1277 9.9726 3.79284 
53 1 1.71123 -0.215445 5.7908 
54 1 -0.163923 1.80821 5.93524 
73 1 1.87778 3.72426 5.89549 
101 1 -0.386107 -0.405503 7.89172 
102 1 1.81385 1.80784 8.06893 
111 1 -0.312502 3.80379 8.00609 
126 1 1.70125 -0.426352 9.91521 
127 1 -0.173628 1.84115 9.9824 
136 1 1.70269 3.88484 9.92957 
58 1 3.79797 1.84939 5.82902 
103 1 3.79877 -0.317125 7.90985 
113 1 3.92504 3.74774 7.94121 
57 1 5.91985 -0.323718 5.90784 
77 1 5.89754 3.89214 5.82483 
104 1 5.94724 1.87817 8.0423 
129 1 3.72294 1.77051 9.94683 
128 1 5.77021 -0.269155 9.98094 
138 1 5.83649 3.76565 9.93684 
62 1 7.92531 1.7869 5.80991 
105 1 7.81389 -0.210294 7.99876 
115 1 7.96499 3.89233 8.04202 
61 1 10.1115 -0.251567 5.89643 
81 1 9.89204 3.82276 5.92072 
106 1 9.94678 1.87368 7.8281 
131 1 7.83761 1.83388 10.0643 
130 1 9.99646 -0.325282 9.96955 
140 1 10.0362 3.92087 10.0794 
65 1 14.2359 -0.196381 5.98511 
66 1 12.0485 1.80148 5.78264 
85 1 13.995 3.94701 5.78701 
107 1 12.0259 -0.260865 8.00358 
108 1 14.0239 1.88633 7.83693 
117 1 12.0954 3.71984 7.85135 
132 1 14.0342 -0.341632 10.0103 
133 1 11.9756 1.87417 9.95418 
142 1 14.0552 3.9537 10.0353 
69 1 18.3446 -0.223519 5.88847 
70 1 16.226 1.90124 5.77684 
89 1 18.29 3.69718 5.74381 
109 1 16.2141 -0.148226 7.83344 
110 1 18.1919 1.84079 8.0464 
119 1 16.129 3.86372 7.88509 
134 1 18.2107 -0.330277 10.0224 
135 1 16.0371 1.79922 10.0678 
144 1 18.2646 3.93506 9.96789 
74 1 -0.219381 5.72469 5.99978 
92 1 1.7836 8.03288 5.86123 
112 1 1.81142 5.98649 8.00921 
121 1 -0.174846 7.97584 7.83461 
302 1 -0.251747 10.1077 5.84208 
351 1 1.92449 10.1037 7.969 
137 1 -0.175178 5.78375 9.96494 
146 1 1.7534 8.00342 9.99887 
376 1 -0.20603 9.90881 10.0565 
78 1 3.73977 5.764 5.85676 
122 1 3.86783 7.82272 8.04533 
94 1 5.7678 7.9684 5.95336 
114 1 5.92595 5.79861 7.87183 
304 1 3.90747 10.1374 5.94783 
352 1 5.98574 9.9981 8.01177 
139 1 3.80298 5.86326 10.1197 
147 1 5.98698 7.99143 10.1009 
377 1 3.81794 9.99882 10.1109 
82 1 7.83679 5.99625 5.83485 
123 1 7.91472 7.97157 8.04118 
96 1 10.0191 7.96061 5.78297 
116 1 10.1434 5.84144 7.87423 
306 1 7.9918 9.93157 5.83873 
353 1 9.93147 10.0843 7.99091 
378 1 8.06407 9.97635 9.91776 
141 1 7.99789 5.87212 10.0373 
148 1 10.0365 7.903 9.90928 
86 1 12.1152 5.85198 5.86863 
98 1 14.0302 7.83782 5.92028 
118 1 14.1071 5.90026 7.97602 
124 1 12.1396 8.03466 7.86264 
308 1 12.0799 10.0895 5.8038 
354 1 14.1453 10.0215 7.81127 
379 1 12.1208 10.0323 10.0771 
143 1 12.1968 5.96244 10.0234 
149 1 14.1057 7.91193 9.9062 
90 1 16.1182 5.92859 5.75261 
100 1 18.2791 7.85616 5.87299 
120 1 18.2041 5.85529 7.80199 
125 1 16.0677 7.95534 7.93154 
355 1 18.1093 9.95283 8.0748 
310 1 16.2436 9.97155 5.88356 
380 1 16.1105 10.0479 10.0976 
145 1 16.1704 5.77033 10.1048 
150 1 18.182 7.79538 9.95087 
151 1 -0.185113 -0.283134 11.9497 
152 1 1.7693 1.71063 12.0092 
153 1 1.67095 -0.318742 13.9976 
154 1 -0.304633 1.62563 14.1905 
171 1 -0.308024 3.77498 11.999 
173 1 1.71929 3.7983 14.056 
155 1 3.79065 -0.235465 11.9078 
158 1 3.78272 1.64322 14.0915 
175 1 3.84987 3.89356 12.0033 
156 1 5.75353 1.75004 12.1249 
157 1 5.77976 -0.406219 14.0851 
177 1 5.76046 3.88785 14.237 
159 1 7.81752 -0.194068 12.0861 
162 1 8.01369 1.76787 14.1918 
179 1 7.80707 3.81952 12.024 
160 1 9.91055 1.67827 12.1746 
161 1 9.93942 -0.185551 14.2364 
181 1 9.90195 3.82658 14.0555 
163 1 12.0667 -0.357481 12.1926 
164 1 14.1582 1.87605 12.0465 
165 1 14.1712 -0.405016 14.0738 
166 1 12.1983 1.75243 14.1476 
183 1 12.1176 3.76402 12.0515 
185 1 14.2585 3.8198 14.0376 
167 1 16.1315 -0.273894 11.9583 
168 1 18.3155 1.66199 12.1647 
169 1 18.2286 -0.36416 14.2205 
170 1 16.1118 1.63425 14.0843 
187 1 16.318 3.74712 12.1295 
189 1 18.3411 3.76339 14.2333 
172 1 1.86039 5.92594 12.0699 
174 1 -0.200442 5.98824 14.0429 
191 1 -0.375445 7.87861 12.1433 
192 1 1.89862 7.83753 14.177 
402 1 -0.287153 9.95626 13.9838 
401 1 1.87038 10.0865 12.055 
403 1 5.91748 9.92994 12.0856 
404 1 3.93932 10.0056 13.9933 
178 1 3.87627 5.94444 14.2204 
193 1 3.90382 7.96928 12.1039 
176 1 5.84691 5.81943 11.9898 
194 1 5.98571 7.86605 14.1283 
405 1 10.1119 10.048 12.0925 
406 1 7.94183 9.93236 14.1982 
182 1 8.04871 5.9937 14.1188 
195 1 8.11044 7.90345 11.9589 
180 1 10.1441 5.92025 12.0078 
196 1 10.092 8.04101 14.2163 
408 1 12.138 9.98797 14.0604 
407 1 14.1526 10.1069 11.9839 
184 1 14.1685 5.97193 12.1912 
186 1 12.1604 5.77542 14.2175 
197 1 12.1866 7.83573 12.1165 
198 1 14.224 7.97946 14.1944 
410 1 16.0878 10.1154 14.1653 
409 1 18.2513 10.1436 11.9775 
188 1 18.2078 5.87064 11.9909 
190 1 16.1544 5.92049 14.1771 
199 1 16.2984 8.0693 12.1765 
200 1 18.3225 8.01122 14.0438 
201 1 -0.237111 -0.36844 16.2292 
202 1 1.74402 1.64579 16.2475 
203 1 1.70646 -0.38101 18.2103 
204 1 -0.267981 1.80587 18.1771 
221 1 -0.358576 3.67979 16.1403 
223 1 1.72781 3.8999 18.1751 
205 1 3.74255 -0.247064 16.1227 
208 1 3.67793 1.79006 18.2864 
225 1 3.80542 3.7668 16.1688 
206 1 5.98845 1.86823 16.17 
207 1 5.88004 -0.167478 18.1921 
227 1 5.87976 3.85076 18.1542 
209 1 8.05572 -0.272866 16.2881 
212 1 7.85957 1.79803 18.2504 
229 1 7.84702 3.95143 16.2833 
210 1 9.92236 1.80963 16.228 
211 1 9.88533 -0.328473 18.3737 
231 1 9.89419 3.88751 18.1284 
213 1 12.1382 -0.313491 16.2625 
214 1 14.2363 1.72624 16.2824 
215 1 14.0916 -0.295764 18.2659 
216 1 11.9532 1.70009 18.1654 
233 1 12.1099 3.86904 16.2527 
235 1 14.0604 3.73956 18.3241 
217 1 16.1783 -0.418229 16.1288 
218 1 18.2386 1.62894 16.2796 
219 1 18.1439 -0.237266 18.1734 
220 1 16.1887 1.77955 18.1572 
237 1 16.2306 3.89285 16.0854 
239 1 18.1704 3.69319 18.3173 
452 1 -0.201026 9.98858 18.1931 
451 1 1.83899 9.98178 16.0945 
222 1 1.74032 5.84226 16.0648 
224 1 -0.407844 5.78084 18.1813 
241 1 -0.249552 8.00617 16.2542 
242 1 1.64421 7.98917 18.2031 
453 1 5.83693 9.98468 16.2174 
454 1 3.91162 9.90997 18.1364 
228 1 3.772 5.77038 18.334 
243 1 3.70016 7.8481 16.2976 
226 1 5.78707 6.02395 16.0969 
244 1 5.90359 7.96731 18.1693 
455 1 10.0487 9.97707 16.3059 
456 1 7.9208 9.95934 18.2124 
232 1 7.92824 5.86953 18.2101 
245 1 7.90675 8.04595 16.0834 
230 1 9.92811 5.96612 16.0845 
246 1 10.1017 8.00085 18.1257 
458 1 12.1383 9.9112 18.26 
457 1 14.0512 10.0814 16.2448 
248 1 14.1451 7.7824 18.2162 
234 1 14.0271 5.89145 16.0717 
236 1 11.9089 5.96297 18.2532 
247 1 12.1033 8.03694 16.0728 
460 1 16.2411 10.0267 18.2764 
459 1 18.246 10.0627 16.1761 
250 1 18.2502 8.0206 18.3524 
249 1 16.31 7.99579 16.2622 
240 1 16.125 5.74344 18.1385 
238 1 18.3556 5.85449 16.2524 
261 1 -0.339733 11.9145 -0.267102 
262 1 1.7637 14.1661 -0.281211 
263 1 1.71161 12.1699 1.66376 
264 1 -0.389108 14.0667 1.76204 
311 1 -0.411086 12.1822 3.85392 
312 1 1.91362 13.9874 3.87544 
265 1 3.9383 12.0636 -0.405258 
268 1 3.90247 14.1758 1.63861 
315 1 3.73981 12.0327 3.72658 
266 1 5.90054 14.0447 -0.313119 
267 1 5.97339 12.1007 1.72525 
316 1 5.88794 14.1918 3.88038 
269 1 8.06362 12.1357 -0.315246 
272 1 7.88317 14.1523 1.89428 
319 1 7.92404 11.9933 3.88262 
270 1 10.0798 14.0999 -0.225667 
271 1 9.96355 12.0341 1.68176 
320 1 10.0452 14.2006 3.75256 
273 1 12.2113 11.9095 -0.370384 
274 1 14.1239 14.0582 -0.157362 
275 1 14.1423 11.971 1.88735 
276 1 12.0347 14.0674 1.65093 
323 1 11.9622 12.0678 3.83317 
324 1 14.0585 14.1375 3.75206 
277 1 16.1705 11.9497 -0.362571 
278 1 18.3023 14.1386 -0.282084 
279 1 18.0773 12.0619 1.87202 
280 1 16.0564 14.0856 1.68395 
327 1 16.1309 11.9752 3.94259 
328 1 18.0824 14.2264 3.87331 
281 1 -0.21342 16.1592 -0.404913 
282 1 1.75991 18.2556 -0.298422 
283 1 1.7671 16.0994 1.67709 
284 1 -0.32182 18.304 1.85159 
331 1 -0.248349 16.0297 3.81132 
332 1 1.62554 18.263 3.79054 
285 1 3.98036 16.1343 -0.342665 
288 1 3.93667 18.073 1.83592 
335 1 3.91657 16.2975 3.87221 
286 1 5.88398 18.2956 -0.322526 
287 1 5.85387 16.1094 1.80632 
336 1 5.98041 18.2881 3.81869 
289 1 7.85434 16.19 -0.366044 
292 1 7.92686 18.2131 1.80437 
339 1 7.92826 16.1051 3.84013 
290 1 10.1171 18.1462 -0.356331 
291 1 9.89802 16.1313 1.74619 
340 1 9.87801 18.3333 3.81856 
293 1 11.9763 16.0797 -0.181478 
294 1 14.0916 18.275 -0.245007 
295 1 14.1908 16.2618 1.80193 
296 1 11.9767 18.2551 1.87007 
343 1 11.9054 16.1021 3.80882 
344 1 14.085 18.1454 3.97737 
297 1 16.133 16.0671 -0.364901 
298 1 18.1069 18.2518 -0.208019 
299 1 18.142 16.3161 1.70404 
300 1 16.0563 18.2568 1.78799 
347 1 16.2133 16.1869 3.88439 
348 1 18.3496 18.2965 3.95632 
313 1 1.79388 11.9495 5.96792 
314 1 -0.244583 14.0021 5.90038 
356 1 -0.205937 11.9369 7.97888 
357 1 1.70072 14.1508 8.01775 
381 1 1.72157 12.0347 9.86878 
382 1 -0.16421 14.2194 10.076 
318 1 3.83655 14.1291 5.83777 
358 1 3.96743 12.2205 8.06975 
317 1 5.90314 12.0488 5.97257 
359 1 5.9762 14.2574 8.06263 
384 1 3.70489 14.1807 9.9916 
383 1 5.9216 12.1551 10.0537 
322 1 7.83177 14.2263 5.84783 
360 1 7.93383 11.9408 7.82393 
321 1 9.97765 11.9535 5.792 
361 1 9.98178 14.0072 7.96732 
386 1 8.04466 14.0367 9.93668 
385 1 9.98186 11.9432 10.0565 
325 1 14.1747 12.1446 5.7883 
326 1 12.1108 14.0504 5.8342 
362 1 11.9674 12.1493 7.96668 
363 1 14.0396 14.0129 7.85512 
387 1 14.1476 12.211 10.0249 
388 1 12.0818 14.1532 10.1048 
365 1 18.2599 14.2001 8.02305 
364 1 16.0605 12.161 7.98659 
330 1 16.1668 14.1116 5.85416 
329 1 18.1348 11.9456 5.87524 
389 1 18.2579 12.1214 9.9194 
390 1 16.1324 14.1734 10.0037 
367 1 1.81574 18.115 7.85629 
366 1 -0.168893 16.1233 7.84522 
334 1 -0.233708 18.3314 5.89411 
333 1 1.77546 16.1656 5.8184 
391 1 1.87883 16.2717 10.1044 
392 1 -0.199389 18.176 10.0616 
369 1 5.8216 18.1419 7.92019 
337 1 5.94663 16.3258 5.892 
368 1 3.68766 16.221 7.79562 
338 1 3.81507 18.3248 5.98948 
394 1 3.82582 18.3359 10.007 
393 1 5.75462 16.2621 9.92622 
371 1 10.0762 18.3721 8.05572 
341 1 9.94698 16.1508 6.02567 
370 1 7.95806 16.178 8.05874 
342 1 8.1025 18.3556 5.87673 
396 1 7.86077 18.3599 9.93881 
395 1 10.0533 16.2863 10.0722 
373 1 14.0707 18.2315 7.84146 
372 1 11.9601 16.1604 8.04171 
346 1 12.1443 18.2069 5.89868 
345 1 14.0486 16.1427 5.87311 
397 1 14.041 16.0781 9.94912 
398 1 12.0161 18.3682 10.0343 
375 1 18.1537 18.2878 7.84463 
374 1 16.1148 16.2697 8.04846 
350 1 16.2854 18.1091 5.99671 
349 1 18.3499 16.1127 5.82608 
399 1 18.2308 16.2164 10.0096 
400 1 16.0221 18.3672 10.0947 
411 1 -0.318148 12.1453 11.9354 
412 1 1.72899 14.0054 12.1713 
413 1 1.84736 12.1472 13.987 
414 1 -0.266922 14.1019 14.0636 
415 1 3.76802 12.1913 11.9542 
418 1 3.77689 14.1481 14.2163 
416 1 5.78492 14.1961 12.0331 
417 1 5.76614 11.9542 14.0597 
419 1 7.90283 11.9176 12.1323 
422 1 7.90281 14.1161 13.9744 
420 1 9.956 14.2121 12.1081 
421 1 9.94546 12.0408 14.1842 
423 1 12.0363 12.0158 12.1818 
424 1 14.1762 14.2339 12.1437 
425 1 14.1547 12.0756 14.0549 
426 1 11.9671 14.2471 14.0507 
427 1 16.1802 12.0987 12.0596 
428 1 18.3254 13.9777 11.9758 
429 1 18.3349 11.9945 14.1922 
430 1 16.1939 14.1801 14.1767 
431 1 -0.212075 16.1958 12.0894 
432 1 1.75782 18.1384 12.1288 
433 1 1.65743 16.1159 14.062 
434 1 -0.313283 18.1198 14.1427 
435 1 3.81349 16.1474 12.0157 
438 1 3.87668 18.1529 13.9913 
436 1 6.01984 18.138 12.0409 
437 1 5.97195 16.2505 14.2687 
439 1 8.00274 16.2091 11.9036 
442 1 7.82302 18.1289 14.2478 
440 1 9.87419 18.1729 12.2053 
441 1 9.86519 16.1476 14.0822 
443 1 12.1171 16.2402 11.939 
444 1 14.0208 18.229 12.1332 
445 1 14.2013 16.2379 14.0636 
446 1 11.9297 18.2076 14.1244 
447 1 16.3048 16.1968 11.9209 
448 1 18.2204 18.1644 11.9481 
449 1 18.3448 16.0024 13.9727 
450 1 16.3169 18.0916 14.1124 
464 1 -0.333321 14.1645 18.1187 
463 1 1.71831 12.1452 18.3107 
461 1 -0.170489 12.0223 16.2208 
462 1 1.70397 14.0435 16.0794 
467 1 5.89374 11.9908 18.302 
466 1 5.94848 14.0176 16.2467 
468 1 3.76968 13.9898 18.1191 
465 1 3.75825 11.9383 16.1067 