LAMMPS (3 Mar 2020)

# Mo, fcc
# # ---------- Initialize Simulation ---------------------
clear
units           metal
dimension       3
boundary        p p p
atom_style      atomic
atom_modify     map array

# # ---------- Create Atoms ---------------------
lattice         fcc 4.00
Lattice spacing in x,y,z = 4 4 4
region          box block 0 5 0 5 0 5 units lattice
create_box      1 box
Created orthogonal box = (0 0 0) to (20 20 20)
  1 by 2 by 2 MPI processor grid
create_atoms    1 box
Created 500 atoms
  create_atoms CPU = 0.000281893 secs

# # ---------- Define Interatomic Potential ---------------------
pair_style      eam/alloy
pair_coeff      * * Mo_Zhou04.eam.alloy Mo
Reading potential file Mo_Zhou04.eam.alloy with DATE: 2018-03-30
neighbor        2.0 bin
neigh_modify    delay 10 check yes

#  # ---------- Define Settings ---------------------
compute         eng all pe/atom
compute         eatoms all reduce sum c_eng

#  # ---------- Run Minimization ---------------------
reset_timestep  0
fix             1 all box/relax iso 0.0 vmax 0.001
thermo          10
thermo_style    custom step pe lx ly lz press pxx pyy pzz c_eatoms
min_style       cg
minimize        1e-25 1e-25 5000 10000
WARNING: Using 'neigh_modify every 1 delay 0 check yes' setting during minimization (src/min.cpp:190)
Neighbor list info ...
  update every 1 steps, delay 0 steps, check yes
  max neighbors/atom: 2000, page size: 100000
  master list distance cutoff = 8.10022
  ghost atom cutoff = 8.10022
  binsize = 4.05011, bins = 5 5 5
  1 neighbor lists, perpetual/occasional/extra = 1 0 0
  (1) pair eam/alloy, perpetual
      attributes: half, newton on
      pair build: half/bin/atomonly/newton
      stencil: half/bin/3d/newton
      bin: standard
Per MPI rank memory allocation (min/avg/max) = 4.661 | 4.661 | 4.661 Mbytes
Step PotEng Lx Ly Lz Press Pxx Pyy Pzz c_eatoms 
       0   -3303.2277           20           20           20    111293.35    111293.35    111293.35    111293.35   -3303.2277 
      10   -3316.9931         20.2         20.2         20.2    71589.907    71589.907    71589.907    71589.907   -3316.9931 
      20   -3325.2265         20.4         20.4         20.4    35724.278    35724.278    35724.278    35724.278   -3325.2265 
      30   -3328.0429    20.596247    20.596247    20.596247    5.3292776    5.3292776    5.3292776    5.3292776   -3328.0429 
      35   -3328.0429    20.596275    20.596275    20.596275 -5.0486826e-10 -5.0496882e-10 -5.0460945e-10 -5.050265e-10   -3328.0429 
Loop time of 0.0206389 on 4 procs for 35 steps with 500 atoms

99.9% CPU use with 4 MPI tasks x no OpenMP threads

Minimization stats:
  Stopping criterion = energy tolerance
  Energy initial, next-to-last, final = 
        -3303.22769512     -3328.04286797     -3328.04286797
  Force two-norm initial, final = 1667.13 8.18983e-12
  Force max component initial, final = 1667.13 8.02041e-12
  Final line search alpha, max atom move = 1 8.02041e-12
  Iterations, force evaluations = 35 41

MPI task timing breakdown:
Section |  min time  |  avg time  |  max time  |%varavg| %total
---------------------------------------------------------------
Pair    | 0.01201    | 0.014319   | 0.016035   |   1.4 | 69.38
Neigh   | 0.00010872 | 0.00019412 | 0.00023788 |   0.0 |  0.94
Comm    | 0.0018799  | 0.0036303  | 0.0060043  |   2.9 | 17.59
Output  | 0.00012955 | 0.00013957 | 0.0001555  |   0.0 |  0.68
Modify  | 0          | 0          | 0          |   0.0 |  0.00
Other   |            | 0.002356   |            |       | 11.42

Nlocal:    125 ave 180 max 80 min
Histogram: 1 0 0 0 2 0 0 0 0 1
Nghost:    1099 ave 1144 max 1044 min
Histogram: 1 0 0 0 0 0 2 0 0 1
Neighs:    8375 ave 12060 max 5360 min
Histogram: 1 0 0 0 2 0 0 0 0 1

Total # of neighbors = 33500
Ave neighs/atom = 67
Neighbor list builds = 1
Dangerous builds = 0
unfix           1

#  # ----------- Run simulation of fcc phase of Mo --------------------
reset_timestep  0
thermo          10
thermo_style    custom step lx ly lz press pxx pyy pzz pe temp
thermo_modify   format 2 %22.18f
velocity        all create 600 12345 mom yes rot no
dump            1 all custom 50 dumpMoBcc5.out id type x y z
fix             2 all npt temp 600 600 1 iso 0 0 1 drag 1
run             9999
Per MPI rank memory allocation (min/avg/max) = 4.919 | 4.919 | 4.919 Mbytes
Step Lx Ly Lz Press Pxx Pyy Pzz PotEng Temp 
       0  20.596274644052037672    20.596275    20.596275    4731.1804     4656.758    4827.5031    4709.2802   -3328.0429          600 
      10  20.597208992349852252    20.597209    20.597209    2375.3657    2380.4306    2404.5285    2341.1379   -3325.0793    554.02132 
      20  20.599015528138373554    20.599016    20.599016   -3543.0873   -3330.7597    -3698.049   -3600.4533   -3317.0889     430.1822 
      30  20.599238959242114788    20.599239    20.599239   -10153.564   -9711.8437   -10520.479   -10228.369   -3306.9225    272.63032 
      40  20.595181436137920628    20.595181    20.595181   -14449.706   -13895.351   -14928.557   -14525.209   -3298.7536    145.39839 
      50  20.585152735435631399    20.585153    20.585153   -14703.438   -14240.619   -15115.154   -14754.541    -3295.872    98.917928 
      60  20.569187751448261281    20.569188    20.569188   -10823.716   -10628.677   -11018.916   -10823.557   -3298.5994    138.68813 
      70  20.549054231516123536    20.549054    20.549054   -4170.3483   -4282.1846   -4131.6595   -4097.2009   -3304.3545    226.12429 
      80  20.527636050747641860    20.527636    20.527636    3052.5173    2758.2138    3193.2787    3206.0595   -3309.6999    309.04067 
      90  20.507983310568761226    20.507983    20.507983    8920.1472    8661.1001    8967.4867    9131.8548   -3312.3901    352.47965 
     100  20.492506829235253463    20.492507    20.492507    12613.587    12591.689    12426.983    12822.089    -3312.059    349.72097 
     110  20.482651494516616708    20.482651    20.482651    14329.805    14630.103    13904.932    14454.381   -3309.8781    317.87098 
     120  20.479000792515591911    20.479001    20.479001    14664.485    15204.732    14140.485    14648.237    -3307.762    286.03368 
     130  20.481548827945754709    20.481549    20.481549    14132.198    14698.249    13731.698    13966.646   -3307.2547    278.03464 
     140  20.489928352822403212    20.489928    20.489928    12934.234    13285.429    12864.257    12653.016   -3308.6032    297.88969 
     150  20.503499136379751633    20.503499    20.503499    10946.963    10943.313    11295.987    10601.588   -3310.7434    329.47057 
     160  20.521296129583681989    20.521296    20.521296    7852.8347    7539.1297    8537.4281    7481.9465   -3312.1541    349.72836 
     170  20.541901844119141884    20.541902    20.541902    3447.8946    3040.5673    4242.5523    3060.5642   -3311.8292    343.72931 
     180  20.563377411720587418    20.563377    20.563377   -1962.3118    -2191.126   -1323.1804   -2372.6291   -3309.8097    312.69013 
     190  20.583413269376400478    20.583413    20.583413    -7413.099   -7290.3761   -7117.7691   -7831.1519   -3307.1763    273.46527 
     200  20.599745990616302294    20.599746    20.599746   -11679.386   -11197.453   -11779.215   -12061.492   -3305.4818    249.53685 
     210  20.610673088348377746    20.610673    20.610673   -13874.764   -13137.274   -14306.892   -14180.125   -3305.7823    256.33647 
     220  20.615411464759940685    20.615411    20.615411    -13849.61   -12988.103   -14500.884   -14059.843   -3307.9095    290.58879 
     230  20.614134125442383549    20.614134    20.614134   -12221.846   -11347.749   -12978.656   -12339.133   -3310.5863    332.42897 
     240  20.607688537921326599    20.607689    20.607689   -9967.0693   -9163.8294   -10724.825   -10012.554   -3312.2737    358.33716 
     250  20.597177969371692541    20.597178    20.597178   -7804.8699   -7145.6251   -8451.3652   -7817.6193   -3312.0847    354.93021 
     260  20.583657624202444936    20.583658    20.583658   -5842.6625   -5407.5007   -6266.2767   -5854.2103   -3310.2295    325.68886 
     270  20.568083800587093180    20.568084    20.568084   -3722.6629   -3569.9972   -3856.6454   -3741.3459   -3307.8651    288.71262 
     280  20.551452073613432958    20.551452    20.551452   -1043.5115   -1154.4397   -907.69213   -1068.4028   -3306.4135    266.25542 
     290  20.534947866291787477    20.534948    20.534948     2274.599    2011.4782    2571.0366    2241.2821   -3306.6661    270.81068 
     300  20.519962746539917475    20.519963    20.519963    5871.3964    5614.5848     6176.329    5823.2752   -3308.3067    297.54953 
     310  20.507934567875121701    20.507935    20.507935    9065.1436    8949.0484    9241.4941    9004.8883   -3310.2241    329.00622 
     320  20.500071471289409430    20.500071    20.500071    11156.763    11240.374    11111.782    11118.134   -3311.2659    346.82868 
     330  20.497086486774612979    20.497086    20.497086    11737.526    11989.624    11434.901    11788.053   -3310.8525    341.56151 
     340  20.499056242304671827    20.499056    20.499056    10804.826    11128.182     10280.64    11005.656   -3309.2274    316.79561 
     350  20.505446890040946784    20.505447    20.505447    8779.7258    9067.9146    8146.9085    9124.3542   -3307.3219    287.13667 
     360  20.515296872982929699    20.515297    20.515297    6259.5815    6442.5203    5671.5137    6664.7104   -3306.2334    269.95394 
     370  20.527465200646858534    20.527465    20.527465    3771.8376       3830.4    3360.3421    4124.7706   -3306.5618    274.88166 
     380  20.540847258929865404    20.540847    20.540847    1599.7956    1566.2683    1416.6679    1816.4505   -3308.0633     298.3324 
     390  20.554487554506941649    20.554488    20.554488   -316.89531   -384.78341   -338.21108   -227.69143   -3309.8568    326.69684 
     400  20.567554782114015666    20.567555    20.567555   -2259.0734   -2324.8546   -2276.3382   -2176.0275   -3310.9999    345.34017 
     410  20.579233714764377794    20.579234    20.579234   -4395.1228   -4463.5848   -4544.2465   -4177.5369   -3311.0187    346.84767 
     420  20.588662969412183656    20.588663    20.588663   -6566.4026   -6667.4217   -6859.9218   -6171.8644   -3310.0927    333.85099 
     430  20.595003373105456035    20.595003    20.595003   -8345.3773   -8497.2595   -8678.8996   -7859.9729   -3308.8753    316.24692 
     440  20.597610727661290753    20.597611    20.597611   -9298.0357   -9475.3844   -9537.3382   -8881.3844   -3308.0879    304.97418 
     450  20.596207981799260267    20.596208    20.596208   -9197.7006   -9326.9632   -9266.6242   -8999.5145   -3308.0832    305.37505 
     460  20.590966926644860280    20.590967    20.590967   -8123.4344   -8122.3583   -8045.9692   -8201.9759   -3308.6424     314.1241 
     470  20.582460965701464772    20.582461    20.582461   -6412.6291   -6232.1156   -6307.6335   -6698.1381   -3309.1687    322.17893 
     480  20.571516173467102817    20.571516    20.571516   -4426.5156   -4057.4711   -4442.1429   -4779.9329   -3309.1324    321.55317 
     490  20.559055087126143491    20.559055    20.559055   -2353.6974   -1844.7539   -2563.4008   -2652.9376   -3308.4234    310.69492 
     500  20.546010977963380384    20.546011    20.546011    -218.9044    297.69315   -581.92646   -372.47989   -3307.3927    295.12951 
     510  20.533311284696303289    20.533311    20.533311    2020.0689     2364.923    1594.3538      2100.93   -3306.6045    283.63428 
     520  20.521889197459508125    20.521889    20.521889    4351.0365     4388.332     3920.015    4744.7625   -3306.4812    282.73431 
     530  20.512675166190419418    20.512675    20.512675    6631.8284    6338.0178    6200.6872    7356.7803   -3307.0621    292.92763 
     540  20.506537315406543343    20.506537    20.506537    8562.3346     8042.504    8129.8786    9514.6211   -3308.0209     308.9584 
     550  20.504165130667701078    20.504165    20.504165    9779.8851    9252.6899    9372.6447    10714.321    -3308.899    323.46152 
     560  20.505933842945754719    20.505934    20.505934    10002.061    9731.3115    9668.5823    10606.288    -3309.367    331.14666 
     570  20.511802434671764672    20.511802    20.511802    9113.4587    9268.0243    8912.3558    9159.9959   -3309.3917    331.49311 
     580  20.521278698270585039    20.521279    20.521279    7208.8048    7744.1482    7187.5666    6694.6995   -3309.2167    328.47365 
     590  20.533467473343556264    20.533467    20.533467    4573.1799    5257.1711    4713.8467    3748.5219   -3309.1522    327.22263 
     600  20.547192017656492169    20.547192    20.547192    1557.8983    2125.2237    1732.3999    816.07128   -3309.3194    329.92241 
     610  20.561141741815426087    20.561142    20.561142   -1549.3556   -1234.1031   -1550.5444   -1863.4192    -3309.545    334.03982 
     620  20.573997498245233828    20.573997    20.573997    -4550.459   -4424.9699   -4917.3575   -4309.0495    -3309.492    334.31983 
     630  20.584519906446438142     20.58452     20.58452   -7288.6145   -7172.4366    -8066.493   -6626.9139   -3308.9122    326.70718 
     640  20.591622126667544990    20.591622    20.591622    -9510.857   -9260.3887   -10543.793   -8728.3891   -3307.8372    311.36344 
     650  20.594477218072402280    20.594477    20.594477   -10831.315   -10433.153   -11820.026   -10240.765   -3306.6134    293.30697 
     660  20.592671086755398591    20.592671    20.592671   -10867.088   -10426.732   -11506.232     -10668.3   -3305.7682    280.49178 
     670  20.586346012810402328    20.586346    20.586346   -9444.2554   -9111.7897   -9564.9459   -9656.0305   -3305.7488    279.91516 
     680  20.576253051484343359    20.576253    20.576253   -6711.0655   -6604.6884   -6358.2192   -7170.2889   -3306.6463    293.35146 
     690  20.563667100877363936    20.563667    20.563667   -3131.4709   -3291.6487   -2535.7864   -3566.9775    -3308.095    315.61076 
     700  20.550171685916041042    20.550172    20.550172    624.75933    254.55312    1178.4661    441.25874   -3309.4575    337.13134 
     710  20.537366658030169475    20.537367    20.537367    3894.0806    3456.8745    4208.9911    4016.3762    -3310.186    349.41988 
     720  20.526593256607554849    20.526593    20.526593     6259.493    5913.7529    6285.7154    6579.0108   -3310.1144     349.6296 
     730  20.518771595794490281    20.518772    20.518772    7615.7069    7455.4963    7420.4183     7971.206   -3309.4931     341.2977 
     740  20.514373168140735970    20.514373    20.514373     8082.931    8118.2858    7779.0134    8351.4937   -3308.7752    331.20409 
     750  20.513486065709656714    20.513486    20.513486    7860.7676    8033.8091     7550.481    7998.0127   -3308.3352    325.06262 
     760  20.515910761200053969    20.515911    20.515911    7126.2308    7341.8141     6860.317    7176.5612   -3308.2797    324.56492 
     770  20.521240674755823363    20.521241    20.521241    5958.3686    6118.8668    5718.5854    6037.6534   -3308.4173    326.85747 
     780  20.528898736099108646    20.528899    20.528899    4327.4577    4362.3604    4055.0624    4564.9502   -3308.4047    326.76679 
     790  20.538130983584164113    20.538131    20.538131    2220.0318    2104.2303    1869.5345    2686.3307   -3308.0045    320.77534 
     800  20.548010721256552813    20.548011    20.548011   -171.79313   -419.55373    -578.2428    482.41715   -3307.2927    310.18912 
     810  20.557523465182001132    20.557523    20.557523   -2434.4672   -2764.4941   -2799.2856   -1739.6218   -3306.6568    301.04144 
     820  20.565738842508281436    20.565739    20.565739    -4097.885   -4442.3346   -4313.7349   -3537.5855   -3306.5621    300.45415 
     830  20.571999371560522718    20.571999    20.571999    -4891.066   -5170.5336   -4902.0127   -4600.6516   -3307.2357     311.8041 
     840  20.576024369007193116    20.576024    20.576024   -4874.0759   -5022.8277    -4673.988   -4925.4121   -3308.4901    332.08051 
     850  20.577875580055057014    20.577876    20.577876   -4395.0096   -4411.2598   -4016.7348   -4757.0341   -3309.7887    352.94493 
     860  20.577804675051091010    20.577805    20.577805   -3920.5495   -3876.6107   -3466.0869   -4418.9509    -3310.498      364.594 
     870  20.576058515400006854    20.576059    20.576059   -3776.3075   -3762.7506   -3421.9397   -4144.2321   -3310.1923    360.43708 
     880  20.572747533287248700    20.572748    20.572748   -3960.2613   -4024.1067   -3869.0226   -3987.6546   -3308.8812    340.59578 
     890  20.567851549109544607    20.567852    20.567852    -4136.872   -4273.7613   -4354.5413   -3782.3133   -3307.0611    312.73423 
     900  20.561358941535736733    20.561359    20.561359   -3855.2819   -4029.7961   -4301.5452   -3234.5043   -3305.5184    289.04822 
     910  20.553448353969763218    20.553448    20.553448   -2812.1562   -2961.1699   -3361.2291   -2114.0695   -3304.9311    280.13907 
     920  20.544606964823628914    20.544607    20.544607   -970.93871   -1008.5993   -1544.4519   -359.76486   -3305.5088    289.40896 
     930  20.535634339285763872    20.535634    20.535634    1426.2231    1570.6091    821.64746    1886.4128   -3306.9084    311.68412 
     940  20.527530366484942448     20.52753     20.52753    3908.3358    4233.7829    3224.5661    4266.6583   -3308.4374    336.25673 
     950  20.521293757714268224    20.521294    20.521294    5892.9185      6331.14    5105.9902    6241.6251   -3309.3945     352.1159 
     960  20.517685342814392158    20.517685    20.517685    6902.3316    7394.8378    6040.9069    7271.2501   -3309.3844     352.9089 
     970  20.517046998386575751    20.517047    20.517047    6811.4669    7336.5529    5971.2578    7126.5899   -3308.4994    339.89811 
     980  20.519265179084044348    20.519265    20.519265    5877.4916    6396.8931    5217.6314    6017.9502   -3307.2672    321.24984 
     990  20.523883684480772160    20.523884    20.523884    4513.8591    4942.3227    4180.5212    4418.7332   -3306.3284    306.99545 
    1000  20.530278034987148317    20.530278    20.530278    3079.2604     3328.295    3105.0312    2804.4551   -3306.0754    303.35282 
    1010  20.537804753916532263    20.537805    20.537805    1760.1627    1809.1855    2045.3597     1425.943   -3306.5265    310.70585 
    1020  20.545878366498932621    20.545878    20.545878    554.69864    474.19553    917.75037    272.15003   -3307.4086    324.86871 
    1030  20.553971208627118017    20.553971    20.553971   -652.38836   -726.01644   -429.07681   -802.07184   -3308.2991    339.31065 
    1040  20.561568752914539004    20.561569    20.561569   -1930.5424   -1855.1187   -2020.0943   -1916.4141    -3308.817    348.11465 
    1050  20.568145139792306963    20.568145    20.568145   -3173.2146   -2871.2599   -3602.6772   -3045.7066   -3308.8363    349.28649 
    1060  20.573205654564262090    20.573206    20.573206   -4190.3306   -3669.0596    -4850.163   -4051.7691   -3308.5515    345.76399 
    1070  20.576360994118523706    20.576361    20.576361   -4869.5721   -4195.3586   -5630.3695   -4782.9882    -3308.306    342.78922 
    1080  20.577374086717966861    20.577374    20.577374   -5155.0374   -4426.1147   -5935.7133   -5103.2841   -3308.3165    343.66502 
    1090  20.576181729977420787    20.576182    20.576182   -5007.8109   -4321.2232   -5736.0215   -4966.1879   -3308.5089    347.22501 
    1100  20.572903949300474835    20.572904    20.572904   -4474.6299   -3886.6466    -5054.191   -4483.0523   -3308.5929    348.99509 
    1110  20.567819034595260064    20.567819    20.567819   -3689.2429    -3219.496   -4036.6346   -3811.5981   -3308.3011     344.8737 
    1120  20.561305650245405019    20.561306    20.561306   -2768.4806   -2450.7388   -2840.8042   -3013.8986   -3307.5754    334.00945 
    1130  20.553794594458356215    20.553795    20.553795   -1704.2161   -1578.5666   -1502.5037   -2031.5782   -3306.6033    319.35371 
    1140  20.545768898764645627    20.545769    20.545769    -394.4686   -427.17266  -0.78297163   -755.45018   -3305.7614    306.79496 
    1150  20.537801482084397264    20.537801    20.537801    1250.0324    1180.1933    1668.6855    901.21841   -3305.4766    302.99984 
    1160  20.530584429480104092    20.530584    20.530584    3167.1062     3189.569    3451.1441    2860.6056   -3305.9994    311.88442 
    1170  20.524897405628557578    20.524897    20.524897    5094.3372    5281.2357    5183.3665    4818.4096   -3307.1982    331.37052 
    1180  20.521496345678094997    20.521496    20.521496     6610.027    6974.9304    6550.3307    6304.8198   -3308.5514    353.24541 
    1190  20.520941632466247029    20.520942    20.520942    7231.0411    7718.3835    7138.5764    6836.1633   -3309.3996    367.13168 
    1200  20.523408583160701824    20.523409    20.523409    6604.8746    7040.8064    6616.5722    6157.2451   -3309.3064    366.18081 
    1210  20.528559661619624421     20.52856     20.52856    4778.0179    4901.0308    4980.0646    4452.9582   -3308.2638    350.34551 
    1220  20.535576598710235885    20.535577    20.535577    2235.5763    1854.5007    2601.5921    2250.6362   -3306.6822    326.17303 
    1230  20.543365507221164279    20.543366    20.543366   -328.89368   -1161.8731    67.431073    107.76097   -3305.2415    304.35461 
    1240  20.550843447070406000    20.550843    20.550843   -2327.3948   -3295.8184   -2086.2226   -1600.1435   -3304.5973    295.06734 
    1250  20.557180848397912598    20.557181    20.557181   -3468.3577   -4165.6229   -3535.1407   -2704.3095   -3305.0364    302.67505 
    1260  20.561919057017426837    20.561919    20.561919     -3795.06   -3938.7494   -4199.0986   -3247.3319   -3306.3035    323.13296 
    1270  20.564947721491673605    20.564948    20.564948   -3596.9968   -3106.0132   -4234.0491   -3450.9281   -3307.7535    346.39538 
    1280  20.566379795231636507     20.56638     20.56638   -3239.1618   -2200.4656   -3962.6769   -3554.3428   -3308.7364    362.38026 
    1290  20.566397999920638995    20.566398    20.566398   -2959.8588   -1613.2035   -3663.3919   -3602.9809   -3308.9198    365.92982 
    1300  20.565154692455017482    20.565155    20.565155   -2783.4213   -1498.0338   -3400.0302      -3452.2   -3308.3619    357.93657 
    1310  20.562761528147056822    20.562762    20.562762   -2550.9124   -1705.6021   -3026.9758   -2920.1593   -3307.4349    344.16316 
    1320  20.559352924555561515    20.559353    20.559353   -2058.7888   -1858.4219   -2354.5019   -1963.4427   -3306.6766    332.95875 
    1330  20.555166145108355380    20.555166    20.555166   -1224.9726   -1599.4418   -1314.9222   -760.55386   -3306.5135    330.97857 
    1340  20.550570448048116390     20.55057     20.55057   -162.64679   -834.67504   -29.728744    376.46341   -3306.9774     338.7661 
    1350  20.546018817638863396    20.546019    20.546019    911.24871    288.91085    1235.9963     1208.839   -3307.6815    350.35754 
    1360  20.541957206409442449    20.541957    20.541957    1773.8812    1503.9456    2159.5429    1658.1552   -3308.1018    357.61458 
    1370  20.538732336889630403    20.538732    20.538732    2252.3928    2510.2272    2487.9472    1759.0041   -3307.9312    355.73024 
    1380  20.536523608835199894    20.536524    20.536524    2284.9423    3088.8225     2156.789    1609.2154   -3307.2525    345.94007 
    1390  20.535323981075080724    20.535324    20.535324    1986.2506    3200.4068    1393.3953    1364.9497    -3306.437    333.97648 
    1400  20.534992543648449725    20.534993    20.534993    1620.1659    2988.4374    664.77505    1207.2853   -3305.8969    326.23656 
    1410  20.535361864826995770    20.535362    20.535362    1398.0772    2635.0786    338.52852    1220.6246    -3305.875    326.50886 
    1420  20.536323327978490028    20.536323    20.536323    1352.5975    2260.7099    451.23776    1345.8448   -3306.3347     334.2436 
    1430  20.537840626201312233    20.537841    20.537841    1369.0003    1909.7366    770.53351     1426.731   -3306.9631     344.6031 
    1440  20.539902552395020052    20.539903    20.539903    1276.2165    1552.9337    983.16257    1292.5532   -3307.3479    351.19651 
    1450  20.542454697276895104    20.542455    20.542455    981.02077    1124.9017    892.91429    925.24635   -3307.2804    350.78199 
    1460  20.545363297816422232    20.545363    20.545363    529.86048    596.28058     498.4352    494.86567   -3306.9115    345.69986 
    1470  20.548433432429298762    20.548433    20.548433    34.775638    13.965191   -57.453166    147.81489   -3306.5993    341.50149 
    1480  20.551455643858943745    20.551456    20.551456   -392.62628   -510.72361    -562.4253   -104.72994   -3306.6314    342.65267 
    1490  20.554252478097531309    20.554252    20.554252   -681.49112   -881.22103    -836.1785   -327.07382   -3307.0489    349.79581 
    1500  20.556704977278329238    20.556705    20.556705   -874.26618   -1126.4316   -870.99536   -625.37157   -3307.6164    359.28221 
    1510  20.558731788011304076    20.558732    20.558732   -1163.0856   -1431.7068   -903.34822   -1154.2018   -3307.9323    364.88299 
    1520  20.560211648553149644    20.560212    20.560212   -1742.1976   -1968.7592   -1248.7485   -2009.0852   -3307.6646    361.44035 
    1530  20.560911498321388535    20.560911    20.560911   -2552.6306   -2653.8286   -1979.0853   -3024.9779   -3306.7858     348.5017 
    1540  20.560513971906786423    20.560514    20.560514   -3281.7734   -3198.8834   -2834.3028    -3812.134   -3305.6128    330.93996 
    1550  20.558744990130499275    20.558745    20.558745   -3572.5381   -3331.3944   -3391.7585   -3994.4615   -3304.6277    316.20052 
    1560  20.555518461082350257    20.555518    20.555518   -3204.8081   -2917.5748   -3289.9798   -3406.8696   -3304.2625    310.99401 
    1570  20.551023190656596995    20.551023    20.551023   -2170.3851   -1964.9461   -2393.0543   -2153.1548   -3304.7185    318.50554 
    1580  20.545720765001711072    20.545721    20.545721    -652.6088   -594.23644   -836.70698     -526.883   -3305.8194    336.09599 
    1590  20.540262817060142453    20.540263    20.540263    1037.4581    968.01861    1028.9461    1115.4096    -3307.039    355.66915 
    1600  20.535357940031296664    20.535358    20.535358    2566.0834    2441.2584     2761.329    2495.6628   -3307.7809    367.96516 
    1610  20.531631626962827397    20.531632    20.531632    3661.1708    3548.5007    3952.8546    3482.1571   -3307.7367    368.12035 
    1620  20.529516625118450435    20.529517    20.529517    4191.6788    4108.1746    4403.6348    4063.2268   -3307.0713    358.59607 
    1630  20.529204731604806966    20.529205    20.529205    4216.4541    4131.9329    4238.2459    4279.1835   -3306.3121    347.50906 
    1640  20.530675217001565613    20.530675    20.530675    3914.4783    3808.1894    3778.7219    4156.5235   -3306.0246    343.62596 
    1650  20.533770158689335972     20.53377     20.53377     3448.116    3359.7921    3296.8175    3687.7385   -3306.4788    351.17556 
    1660  20.538261768199838286    20.538262    20.538262    2854.1998    2881.1148    2838.2988    2843.1857   -3307.4827    367.23195 
    1670  20.543866817781143652    20.543867    20.543867    2002.0657    2258.6107     2169.895    1577.6914   -3308.4709    383.07854 
    1680  20.550194974266126735    20.550195    20.550195     691.0846    1246.0404    951.42665   -124.21329   -3308.8172    389.05218 
    1690  20.556672352197924880    20.556672    20.556672   -1140.2044   -342.71395   -945.14265   -2132.7567   -3308.1927    380.09593 
    1700  20.562525017160425023    20.562525    20.562525    -3239.192   -2404.0339   -3212.2102    -4101.332   -3306.7614    358.74267 
    1710  20.566888402861835061    20.566888    20.566888   -5096.0106   -4485.0068   -5222.0103   -5581.0146   -3305.1218    334.18382 
    1720  20.569019313451796904    20.569019    20.569019   -6164.5223   -5937.3186   -6347.6347   -6208.6135     -3304.02    317.84797 
    1730  20.568518288158898599    20.568518    20.568518    -6126.353   -6248.8588   -6254.2705   -5875.9296    -3303.949    317.29212 
    1740  20.565453238753935494    20.565453    20.565453    -5055.992   -5344.3321    -5048.484     -4775.16   -3304.8703    331.96085 
    1750  20.560320681618392769    20.560321    20.560321   -3344.7824   -3578.8499    -3208.515   -3246.9823   -3306.2759    354.12059 
    1760  20.553877255407876135    20.553877    20.553877   -1473.6153   -1505.9487   -1325.5267   -1589.3705    -3307.512    373.76878 
    1770  20.546934832065879561    20.546935    20.546935    184.59553      389.135    176.47638    -11.82479     -3308.09    383.37976 
    1780  20.540203110345053972    20.540203    20.540203    1453.1376    1855.2736    1157.2224    1346.9167   -3307.8504    380.44152 
    1790  20.534215251811609448    20.534215    20.534215    2311.2735    2845.3462    1682.0512    2406.4232    -3306.958    367.43578 
    1800  20.529319748938625878     20.52932     20.52932    2794.6973     3377.455    1906.0919    3100.5449   -3305.7504     349.5248 
    1810  20.525699396153576970    20.525699    20.525699    2967.7442      3489.32    2027.1847     3386.728   -3304.5649    331.89929 
    1820  20.523403958677508996    20.523404    20.523404    2948.8169    3292.7097    2240.3193    3313.4216   -3303.6703    318.70989 
    1830  20.522403740989407339    20.522404    20.522404    2911.6216    2984.7222    2686.2759    3063.8667   -3303.2634    313.02157 
    1840  20.522661587726275911    20.522662    20.522662    2999.4472    2764.9909    3373.5449    2859.8058   -3303.4516    316.51212 
    1850  20.524191357900267718    20.524191    20.524191    3256.3258    2776.0749    4138.1741    2854.7285   -3304.2198    328.96394 
    1860  20.527074152217320346    20.527074    20.527074    3590.5119    3028.1591    4669.5824    3073.7941   -3305.4193    348.07172 
    1870  20.531417376264577968    20.531417    20.531417    3751.1563    3322.8532    4598.0719    3332.5438   -3306.7821    369.67169 
    1880  20.537249192138020248    20.537249    20.537249    3382.2104    3273.9076    3647.0256    3225.6981   -3307.9674    388.49625 
    1890  20.544377220648641469    20.544377    20.544377    2255.5411    2529.6283    1847.8052    2389.1898    -3308.647    399.51219 
    1900  20.552303246627808164    20.552303    20.552303    492.34012    1035.8104    -385.1013    826.31127   -3308.6196    399.68756 
    1910  20.560275275534859674    20.560275    20.560275   -1536.0049   -975.56835    -2511.668   -1120.7785   -3307.9378     389.8906 
    1920  20.567440459469306546     20.56744     20.56744   -3459.8424   -3172.2096   -4163.6279   -3043.6897   -3306.9421    375.37068 
    1930  20.573001904128354056    20.573002    20.573002   -5000.8254   -5184.1122   -5196.3476   -4622.0164   -3306.0927    363.15868 
    1940  20.576339359502298976    20.576339    20.576339   -5943.9643   -6589.5404   -5624.6266   -5617.7258   -3305.6888    357.76909 
    1950  20.577095822364476874    20.577096    20.577096   -6215.0068   -7106.6075   -5614.4634   -5923.9495   -3305.7015    358.66504 
    1960  20.575203181198382651    20.575203    20.575203   -5923.3624   -6753.3154   -5403.0703   -5613.7015   -3305.8457    361.40674 
    1970  20.570833885444997691    20.570834    20.570834    -5249.355   -5740.6099   -5132.5662   -4874.8888   -3305.8167    361.30748 
    1980  20.564324568491088030    20.564325    20.564325    -4295.719   -4287.1123    -4736.463   -3863.5818   -3305.4609    356.05828 
    1990  20.556129119730165655    20.556129    20.556129   -3062.3609   -2558.7716   -3975.1181   -2653.1931   -3304.8097    346.22804 
    2000  20.546813027093069337    20.546813    20.546813    -1505.904   -681.34613   -2571.7736   -1264.5922   -3304.1023    335.61894 
    2010  20.537066598614721613    20.537067    20.537067    410.90165    1271.5503   -387.58123    348.73589   -3303.7518    330.72439 
    2020  20.527713214206833925    20.527713    20.527713    2634.3621     3239.135    2404.7448    2259.2065   -3304.1075    337.01688 
    2030  20.519677749654121612    20.519678    20.519678    4910.4806    5077.2325     5293.258    4360.9513     -3305.15    354.17566 
    2040  20.513877294193775924    20.513877    20.513877    6813.6526    6547.0737    7625.8039    6268.0804   -3306.4298    375.09238 
    2050  20.511050454996507142     20.51105     20.51105    7938.5061     7412.666    8886.1285    7516.7238   -3307.3409    390.16892 
    2060  20.511598876579704154    20.511599    20.511599    8055.2133    7515.1078    8841.9435    7808.5887   -3307.4982    393.26505 
    2070  20.515500986634776837    20.515501    20.515501    7143.2144    6776.4557    7569.6223    7083.5652   -3306.9297    384.79475 
    2080  20.522312032655996461    20.522312    20.522312     5385.763    5250.7251    5405.4606    5501.1035   -3306.0286    370.98524 
    2090  20.531246404406665818    20.531246    20.531246    3146.8033    3215.5521    2827.7013    3397.1566   -3305.3251    360.27141 
    2100  20.541330197403965485     20.54133     20.54133    837.84367    1084.1853    270.70065    1158.6451   -3305.1741    358.32786 
    2110  20.551569454874453413    20.551569    20.551569   -1292.0852    -873.2182   -2032.3747   -970.66278   -3305.5521    364.86066 
    2120  20.561054751824784148    20.561055    20.561055   -3206.4746   -2653.2862   -4030.6074   -2935.5301   -3306.1022    374.30855 
    2130  20.568982326193427923    20.568982    20.568982   -4931.2995   -4340.5271   -5727.1046   -4726.2667   -3306.3547     379.2873 
    2140  20.574648359542226927    20.574648    20.574648   -6405.8763    -5880.957    -7082.548   -6254.1239   -3305.9856    374.63056 
    2150  20.577474768605753752    20.577475    20.577475   -7462.1227    -7058.208   -7974.6326   -7353.5274    -3305.039    360.85434 
    2160  20.577079111822556001    20.577079    20.577079   -7839.7326   -7559.8206   -8163.4364   -7795.9406   -3303.9865    345.13209 
    2170  20.573379694508311388     20.57338     20.57338   -7270.1661   -7095.7984   -7366.8882   -7347.8117   -3303.4743    337.45881 
    2180  20.566698357745103465    20.566698    20.566698   -5636.7977   -5555.6455    -5471.346   -5883.4015    -3303.871    343.68399 
    2190  20.557795177837924427    20.557795    20.557795   -3122.2784   -3125.7613    -2716.411   -3524.6628   -3305.0031    361.38485 
    2200  20.547776757434462525    20.547777    20.547777   -230.36686   -303.17256    309.15241   -697.08041   -3306.2883    381.76888 
    2210  20.537878492780510697    20.537878    20.537878    2425.0879     2323.917    2920.9402    2030.4067    -3307.084    394.93752 
    2220  20.529208718925914923    20.529209    20.529209    4396.6184    4366.9224    4646.3202    4176.6125   -3307.0064    394.80759 
    2230  20.522566498706197535    20.522566    20.522566    5519.8413    5680.0352    5379.7107    5499.7779   -3306.1198    382.16538 
    2240  20.518379665493000630     20.51838     20.51838    5850.7488      6219.43    5335.0349    5997.7815   -3304.9279    364.64728 
    2250  20.516736768470572372    20.516737    20.516737    5575.2109    6021.4754    4873.0471    5831.1103   -3304.0766    352.20091 
    2260  20.517472130323792356    20.517472    20.517472     4928.145     5249.792    4290.4567    5244.1863   -3303.9095    350.18492 
    2270  20.520267868039670844    20.520268    20.520268    4100.5201    4167.7309    3688.8824    4444.9471   -3304.2558     356.0229 
    2280  20.524732819730420630    20.524733    20.524733    3131.0816    2984.6364    2953.1049    3455.5035   -3304.6314    362.28637 
    2290  20.530420143895756979     20.53042     20.53042    1945.8887    1769.0036    1900.4296     2168.233   -3304.6422    362.92342 
    2300  20.536804284387645936    20.536804    20.536804    569.86178    541.72989     548.6568    619.19865   -3304.2435    357.29029 
    2310  20.543296689037795488    20.543297    20.543297    -760.9504   -598.37706   -809.37131   -875.10284   -3303.7595    350.43219 
    2320  20.549342824224005710    20.549343    20.549343    -1706.908   -1448.5168   -1785.7368   -1886.4702   -3303.7399    350.85219 
    2330  20.554558572414642015    20.554559    20.554559   -2037.0404   -1834.2836   -2122.3548   -2154.4827   -3304.6275    365.37672 
    2340  20.558819350745473287    20.558819    20.558819   -1807.1602   -1798.6877    -1863.367    -1759.426   -3306.3631     393.0587 
    2350  20.562228627903394340    20.562229    20.562229   -1424.9007   -1690.3239   -1417.3736   -1167.0047   -3308.2737    423.46761 
    2360  20.564946262219880424    20.564946    20.564946   -1462.9047    -1983.916   -1359.4792   -1045.3188   -3309.3995    441.72751 
    2370  20.566956190768109991    20.566956    20.566956   -2305.0459   -2957.3534   -2079.4752   -1878.3092   -3309.0234     436.7073 
    2380  20.567917113907274285    20.567917    20.567917   -3848.8606   -4434.1052   -3519.7782   -3592.6984   -3307.0711    407.21016 
    2390  20.567215120424613417    20.567215    20.567215   -5460.8598    -5751.889   -5138.3674   -5492.3229   -3304.2131    363.52789 
    2400  20.564229048053036308    20.564229    20.564229   -6295.9458   -6115.3109   -6140.3735    -6632.153     -3301.61    323.54741 
    2410  20.558674585558037506    20.558675    20.558675   -5760.3924   -5075.5099   -5895.4191   -6310.2482   -3300.3747    304.52143 
    2420  20.550842711561784881    20.550843    20.550843    -3741.518   -2708.0854   -4194.3173   -4322.1513   -3300.9983     314.2621 
    2430  20.541630480409828863     20.54163     20.54163   -667.33166    421.13426   -1342.0279   -1081.1013   -3303.0877    346.97615 
    2440  20.532349183373220569    20.532349    20.532349    2691.2167    3533.7487    1985.8903    2554.0112   -3305.6254     387.0772 
    2450  20.524396653264815882    20.524397    20.524397    5560.8574    5989.8643    5025.8266    5666.8813   -3307.5704    418.34411 
    2460  20.518937168613071265    20.518937    20.518937    7432.5338    7475.9665    7190.0131    7631.6217   -3308.3519     431.6448 
    2470  20.516696836802893245    20.516697    20.516697    8116.6457     7925.179    8190.8997    8233.8582   -3307.9862    426.94029 
    2480  20.517892993883382502    20.517893    20.517893     7625.393     7350.873    7981.9088    7543.3972   -3306.9119    410.89732 
    2490  20.522250194399315859     20.52225     20.52225    6107.4117    5855.2763     6687.837    5779.1216   -3305.7343    392.96389 
    2500  20.529073482801486250    20.529073    20.529073    3863.5008    3707.3854    4574.8418    3308.2753   -3304.9188    380.56377 
    2510  20.537377559191227760    20.537378    20.537378    1264.9175    1232.6069    1968.3394    593.80617   -3304.5452    375.15042 
    2520  20.546044310450675141    20.546044    20.546044   -1324.7366   -1274.8525   -790.06511   -1909.2922   -3304.3354    372.53349 
    2530  20.553978163215411712    20.553978    20.553978   -3569.7423    -3495.456   -3326.4012   -3887.3696   -3303.9738    367.79593 
    2540  20.560246884055302985    20.560247    20.560247   -5233.3197    -5140.332   -5285.9031   -5273.7241   -3303.3873    359.66573 
    2550  20.564177882109941464    20.564178    20.564178   -6248.5362   -6112.7875   -6483.6922   -6149.1288   -3302.7525     350.7114 
    2560  20.565387206902236983    20.565387    20.565387   -6611.7731   -6435.7495   -6885.8405   -6513.7292   -3302.3307    344.86847 
    2570  20.563779740928275430     20.56378     20.56378   -6286.6098   -6065.4761   -6513.0695   -6281.2839   -3302.3009    344.87587 
    2580  20.559556750017698334    20.559557    20.559557   -5251.4779   -4912.0303   -5434.4349   -5407.9687   -3302.6669     350.8557 
    2590  20.553215487291350172    20.553215    20.553215   -3583.0772    -3040.218   -3789.2304   -3919.7833   -3303.2643    360.39391 
    2600  20.545506415445263571    20.545506    20.545506   -1512.2281   -774.92468   -1813.4666   -1948.2931    -3303.852    369.90434 
    2610  20.537330597140666555    20.537331    20.537331    654.04943    1454.4683    234.78678    272.89321   -3304.2498    376.68542 
    2620  20.529608626797426041    20.529609    20.529609    2647.8439    3310.7886    2151.7679    2480.9752    -3304.465    380.84644 
    2630  20.523167190493282419    20.523167    20.523167    4279.6407    4620.0141    3782.1499    4436.7581   -3304.6845     385.1959 
    2640  20.518662510268196542    20.518663    20.518663    5447.1411    5369.2885     5027.649    5944.4859   -3305.0726    392.15854 
    2650  20.516540184117360468     20.51654     20.51654    6074.4294    5628.8351    5787.3892    6807.0637   -3305.5623    400.58793 
    2660  20.517009448711043262    20.517009    20.517009    6097.6087    5490.8292    5936.5421    6865.4549   -3305.8909    406.34452 
    2670  20.520023444756084530    20.520023    20.520023    5487.9682    5015.9192    5392.9805    6055.0049   -3305.8488    406.17919 
    2680  20.525274702297878093    20.525275    20.525275    4313.0504    4255.6534    4210.6889    4472.8088   -3305.4782    400.81331 
    2690  20.532228363843451291    20.532228    20.532228    2756.9849    3283.0508    2558.5867    2429.3173   -3305.0539    394.61511 
    2700  20.540200561780025623    20.540201    20.540201      1059.33    2173.7288    668.53775    335.72349    -3304.893    392.60534 
    2710  20.548458394909140168    20.548458    20.548458    -574.2965    981.05295   -1190.5694    -1513.373   -3305.1376    397.04072 
    2720  20.556304049567472703    20.556304    20.556304   -2079.1549   -328.19816   -2846.2341   -3063.0324   -3305.6224    405.35638 
    2730  20.563102281212763955    20.563102    20.563102   -3523.6948   -1870.8095   -4297.4383   -4402.8365   -3305.9211    410.90127 
    2740  20.568255537006628231    20.568256    20.568256   -4973.5871   -3716.9789   -5597.5042   -5606.2783   -3305.5889    406.70151 
    2750  20.571182945817099608    20.571183    20.571183   -6313.3245   -5676.9777   -6673.6613   -6589.3345    -3304.465    390.14518 
    2760  20.571371251323711249    20.571371    20.571371   -7216.4764   -7266.8019     -7276.84   -7105.7873   -3302.8475    365.71806 
    2770  20.568509194587353051    20.568509    20.568509   -7264.0223   -7867.5515   -7040.7405   -6883.7749   -3301.4208    343.94108 
    2780  20.562657151034635206    20.562657    20.562657   -6109.9628   -6950.7421   -5647.9112    -5731.235   -3300.9461    336.67088 
    2790  20.554378195745393043    20.554378    20.554378   -3704.7781   -4385.5938   -3116.4185   -3612.3222   -3301.8302    350.45446 
    2800  20.544740081095142159     20.54474     20.54474   -447.98736   -669.30575    71.067426   -745.72377   -3303.8164     381.6165 
    2810  20.535132209140641635    20.535132    20.535132    2876.7771    3175.0608    3126.5075    2328.7629   -3306.0629     417.2647 
    2820  20.526932217075184894    20.526932    20.526932    5395.6589    6056.4449    5264.9444    4865.5873   -3307.5913    442.10594 
    2830  20.521152122235264414    20.521152    20.521152    6560.2029    7360.3107    6062.9861    6257.3119   -3307.7517    445.76805 
    2840  20.518224766267895376    20.518225    20.518225    6330.4479    7109.8142    5635.7744    6245.7552   -3306.4527    426.59649 
    2850  20.518001439314168977    20.518001    20.518001    5106.6928    5792.6867    4531.4207    4995.9709   -3304.2134    392.58304 
    2860  20.519928088213699624    20.519928    20.519928    3523.9171     4081.676    3376.5353      3113.54   -3302.0055    358.87927 
    2870  20.523311504202879973    20.523312    20.523312    2163.9414    2555.5585    2555.0882    1381.1775   -3300.7828    340.38749 
    2880  20.527556229106387775    20.527556    20.527556    1283.1425    1474.8397    2083.2441    291.34379   -3300.9379    343.27056 
    2890  20.532269189007219978    20.532269    20.532269     786.2141    779.11052    1706.7509   -127.21911   -3302.1151    362.04751 
    2900  20.537221257964795029    20.537221    20.537221    398.91502    258.27175    1099.0272   -160.55392   -3303.5217    384.44335 
    2910  20.542234440040019194    20.542234    20.542234   -136.59515   -310.13654    72.102797    -171.7517   -3304.4616    399.66771 
    2920  20.547077899792157041    20.547078    20.547078   -893.51124   -1039.8263   -1248.8613   -391.84618   -3304.6827    403.80692 
    2930  20.551439637623019507     20.55144     20.55144   -1708.0068    -1859.377   -2445.3049   -819.33849   -3304.3865    399.96396 
    2940  20.554992623644920968    20.554993    20.554993    -2331.695   -2576.5833   -3105.8147    -1312.687   -3304.0116    394.90849 
    2950  20.557491645209843512    20.557492    20.557492   -2674.1156   -3055.0129   -3181.6231   -1785.7107   -3303.9258    394.31544 
    2960  20.558809835004712596     20.55881     20.55881   -2817.5623   -3286.7202   -2961.2933   -2204.6735   -3304.1877    399.08002 
    2970  20.558906665935715807    20.558907    20.558907   -2868.4113   -3302.6558   -2778.6827   -2523.8955   -3304.5387    405.19134 
    2980  20.557785865009591930    20.557786    20.557786   -2838.7196   -3060.2601   -2758.1162   -2697.7824   -3304.6167    407.03652 
    2990  20.555485926477118142    20.555486    20.555486   -2722.6084   -2560.2807   -2850.4291   -2757.1155   -3304.2267    401.58217 
    3000  20.552081746789788497    20.552082    20.552082   -2500.5811   -1893.6537    -2906.729   -2701.3607   -3303.4936    390.76615 
    3010  20.547695938045826836    20.547696    20.547696   -2044.5865   -1107.7299   -2674.4897     -2351.54   -3302.8164     380.7863 
    3020  20.542551822674369078    20.542552    20.542552   -1136.5232   -115.13303   -1859.6004   -1434.8361   -3302.6379    378.54444 
    3030  20.537055645495044587    20.537056    20.537056     326.2819    1162.0459   -327.67174    144.47152   -3303.1494    387.07568 
    3040  20.531829197577845747    20.531829    20.531829    2155.8485    2587.7155     1724.418    2155.4121   -3304.1328    403.04962 
    3050  20.527624293544810996    20.527624    20.527624    3874.1201    3778.8698     3768.292    4075.1984   -3305.0846    418.63675 
    3060  20.525127078246214296    20.525127    20.525127    4959.8876    4336.4291    5212.9446    5330.2891   -3305.5213    426.23647 
    3070  20.524749098247681900    20.524749    20.524749    5103.0478    4070.6812    5689.6209    5548.8412   -3305.2455    422.67996 
    3080  20.526507438627611180    20.526507    20.526507    4322.5663    3088.0065    5170.6061    4709.0865   -3304.4162    410.40227 
    3090  20.530040817941724640    20.530041    20.530041    2942.1484    1767.2649    3919.1062    3140.0742   -3303.4429    395.81382 
    3100  20.534745483803728661    20.534745    20.534745    1381.1057    556.51795    2266.3062    1320.4929   -3302.7955    386.28712 
    3110  20.539948575739231273    20.539949    20.539949   -52.474576   -284.66951    445.02675   -317.78097   -3302.7384    385.98479 
    3120  20.545036275449771068    20.545036    20.545036   -1252.7617   -818.43611   -1423.9413   -1515.9076   -3303.1334    392.77722 
    3130  20.549499055534770520    20.549499    20.549499   -2270.6249   -1320.1547   -3229.6938   -2262.0262   -3303.5229    399.55075 
    3140  20.552914491512609629    20.552914    20.552914   -3144.5903   -2013.8763   -4715.7351   -2704.1595   -3303.4871    399.75875 
    3150  20.554935445314978182    20.554935    20.554935   -3755.5803   -2835.3266   -5489.1051   -2942.3093    -3303.001     392.9546 
    3160  20.555336713924191372    20.555337    20.555337   -3901.3427   -3481.3366   -5264.4672   -2958.2242    -3302.456    385.15987 
    3170  20.554092939142513785    20.554093    20.554093   -3461.9352   -3636.5189   -4082.2017   -2667.0849   -3302.3152    383.54707 
    3180  20.551423253733233310    20.551423    20.551423   -2469.6893   -3116.2467   -2308.2266   -1984.5947   -3302.7555    390.90486 
    3190  20.547772917391370129    20.547773    20.547773   -1096.5672   -1931.5678   -428.89261   -929.24114   -3303.6035    404.61749 
    3200  20.543735445417830476    20.543735    20.543735    359.95855   -340.56942    1119.8228    300.62221   -3304.4924    419.04913 
    3210  20.539925145254258609    20.539925    20.539925    1560.1645    1210.5222    2032.3997    1437.5717   -3305.0503    428.43123 
    3220  20.536838521791011658    20.536839    20.536839    2285.2907    2299.2069     2224.456    2332.2092    -3305.067    429.45588 
    3230  20.534767442812842830    20.534767    20.534767    2513.0996    2720.5076    1878.6858    2940.1055   -3304.5822    422.68666 
    3240  20.533790141236053728     20.53379     20.53379    2308.9072    2463.0647    1313.9696    3149.6875   -3303.8399    411.87618 
    3250  20.533800240252219282      20.5338      20.5338    1736.7182    1655.8182    763.27783    2791.0584   -3303.1334    401.57009 
    3260  20.534539623895707194     20.53454     20.53454    906.37611    582.26103    266.87703    1869.9903   -3302.6124    394.11238 
    3270  20.535648919216697550    20.535649    20.535649    5.4754029   -377.12244   -241.14261    634.69126   -3302.1917     388.2055 
    3280  20.536745746296496407    20.536746    20.536746   -778.09463   -934.63894   -809.85671   -589.78824   -3301.6792    380.87835 
    3290  20.537503332615681728    20.537503    20.537503   -1290.5219   -1005.2182   -1361.6019   -1504.7456   -3301.0432    371.63289 
    3300  20.537715625462123370    20.537716    20.537716   -1391.6576    -639.5554   -1673.3923   -1862.0251   -3300.5598    364.73914 
    3310  20.537354700735257040    20.537355    20.537355   -959.47366    77.402238   -1459.9491   -1495.8742   -3300.6707    367.04888 
    3320  20.536616055441861306    20.536616    20.536616    27.194949    1035.3165   -540.71113   -413.02048   -3301.6713    383.16745 
    3330  20.535919529605230593     20.53592     20.53592    1382.6261    2069.0009    961.48139    1117.3962   -3303.4645    411.61859 
    3340  20.535824504884146791    20.535825    20.535825    2678.3302    2907.5467    2559.9717    2567.4722   -3305.5298    444.33069 
    3350  20.536849964784046563     20.53685     20.53685    3367.1416      3194.63    3601.1545    3305.6403   -3307.1123    469.55922 
    3360  20.539253206670391450    20.539253    20.539253    3048.7157    2652.5119    3587.5987    2906.0367   -3307.5639    477.21912 
    3370  20.542873695945669255    20.542874    20.542874    1708.0559    1281.0791    2437.3647    1405.7238   -3306.6687    463.97624 
    3380  20.547132328691517955    20.547132    20.547132   -310.29215   -628.97154    459.70499   -761.60989   -3304.7204    434.43583 
    3390  20.551178511967748364    20.551179    20.551179   -2468.4433   -2654.8056   -1786.0767   -2964.4478   -3302.3737    398.77007 
    3400  20.554116498931115586    20.554116    20.554116    -4222.015   -4379.5513   -3696.2129   -4590.2808   -3300.4286    369.33049 
    3410  20.555233095278573785    20.555233    20.555233   -5178.8365   -5432.7366   -4866.8498   -5236.9233   -3299.5402    356.18454 
    3420  20.554158881636183764    20.554159    20.554159   -5193.1519   -5557.8263   -5195.7447   -4825.8848   -3299.8698    361.78256 
    3430  20.550925932131764995    20.550926    20.550926   -4339.9561   -4661.7015   -4776.6821   -3581.4846   -3300.9617    379.10171 
    3440  20.545930575796365503    20.545931    20.545931   -2853.0741   -2864.2444   -3773.0884   -1921.8894   -3302.0682    396.65133 
    3450  20.539828611406186099    20.539829    20.539829   -1044.5617   -561.29544   -2293.6356   -278.75402   -3302.6627    406.36519 
    3460  20.533400866940720420    20.533401    20.533401     811.9362    1711.7841   -388.09975    1112.1243   -3302.6931    407.48244 
    3470  20.527434681663145000    20.527435    20.527435    2520.5839    3556.4782    1777.4019    2227.8715   -3302.5009    405.27791 
    3480  20.522642555358366678    20.522643    20.522643    4007.6619    4893.2481    3921.7885    3207.9491   -3302.5655    407.11841 
    3490  20.519630738021302108    20.519631    20.519631    5259.7788    5836.1479    5717.8928    4225.2957   -3303.1745    417.38405 
    3500  20.518890824175933574    20.518891    20.518891    6162.6291    6381.9364    6829.2733    5276.6775   -3304.1978    433.96812 
    3510  20.520754161298484064    20.520754    20.520754    6474.6843     6327.045      6992.19    6104.8178   -3305.1711    449.60434 
    3520  20.525295934717011193    20.525296    20.525296    5890.6916    5403.9539    6046.2427    6221.8781   -3305.6136    456.82496 
    3530  20.532215618781464173    20.532216    20.532216    4210.9776    3504.7046    3989.6055    5138.6228   -3305.2793     451.9148 
    3540  20.540766921502477516    20.540767    20.540767     1613.122     919.3586    1126.5373      2793.47   -3304.2379    436.14703 
    3550  20.549838851824453911    20.549839    20.549839   -1326.7543   -1763.6433   -1932.1737   -284.44587   -3302.8713    415.59655 
    3560  20.558194283163228278    20.558194    20.558194   -3940.9979    -4017.359    -4544.078   -3261.5568   -3301.7162    398.58161 
    3570  20.564744536677302733    20.564745    20.564745   -5810.2433   -5568.9904   -6372.7557   -5488.9839   -3301.1626    390.99345 
    3580  20.568726916724180853    20.568727    20.568727   -6807.8738   -6335.5673    -7385.239   -6702.8151   -3301.2426    393.14044 
    3590  20.569758449448670490    20.569758    20.569758   -7014.0783   -6399.1185   -7700.7454   -6942.3709   -3301.6641    400.37033 
    3600  20.567798962695164278    20.567799    20.567799    -6619.893   -5961.0631   -7503.7011   -6394.9149    -3302.043    406.70347 
    3610  20.563069426909265758    20.563069    20.563069   -5762.0458   -5151.4638   -6873.7928   -5260.8808   -3302.1435     408.5326 
    3620  20.555992155053182557    20.555992    20.555992   -4425.7472   -3931.9577   -5657.6565   -3687.6273   -3301.9571    405.83333 
    3630  20.547187719182140597    20.547188    20.547188   -2568.5544   -2223.5376   -3672.9227   -1809.2029    -3301.672    401.66283 
    3640  20.537480327631712385     20.53748     20.53748   -304.64901    -105.5858   -1038.5759    230.21462   -3301.6066    401.10092 
    3650  20.527843054706305992    20.527843    20.527843    2100.0604    2141.9311    1813.4305    2344.8197   -3302.0298     408.3962 
    3660  20.519284540498787806    20.519285    20.519285    4348.0628    4164.1236    4398.7215    4481.3435   -3302.8931     422.7579 
    3670  20.512721641388900196    20.512722    20.512722    6122.3489     5638.274    6314.2071    6414.5655   -3303.7646    437.35148 
    3680  20.508850454426756471     20.50885     20.50885    7127.4892    6366.0069    7296.6701    7719.7906   -3304.1238    443.91314 
    3690  20.508031985923786067    20.508032    20.508032    7167.3048    6242.1609    7279.0944     7980.659   -3303.7015    438.11665 
    3700  20.510220227628025214     20.51022     20.51022    6204.2117    5252.3596    6336.9806    7023.2948   -3302.5845    421.28072 
    3710  20.514960742578018937    20.514961    20.514961    4497.6312    3707.6884    4688.7199    5096.4852   -3301.1624    399.55271 
    3720  20.521502065103504719    20.521502    20.521502    2502.1126    2121.6758    2695.4155    2689.2464   -3300.0204    382.17069 
    3730  20.528983864082618993    20.528984    20.528984     668.4002    899.26944    804.00156     301.9296   -3299.7111    377.81784 
    3740  20.536623308353270545    20.536623    20.536623    -696.1647     168.1236   -635.55738   -1621.0603   -3300.4564    389.96672 
    3750  20.543841939256509477    20.543842    20.543842   -1496.5144   -214.30198   -1530.9819   -2744.2592   -3302.0076      414.735 
    3760  20.550302482389120939    20.550302    20.550302   -1865.9234   -579.37554   -2012.4908   -3005.9039   -3303.7466    442.48846 
    3770  20.555850373673919762     20.55585     20.55585   -2122.4677   -1292.4677   -2309.5421   -2765.3934   -3304.9587    462.10904 
    3780  20.560379989020766800     20.56038     20.56038   -2622.3308   -2515.4793    -2708.011   -2643.5021   -3305.1954    466.62087 
    3790  20.563692606989050660    20.563693    20.563693   -3486.3964   -4037.0308   -3435.3831   -2986.7753   -3304.5116    456.84379 
    3800  20.565451072432310298    20.565451    20.565451   -4480.4395   -5388.7982   -4422.7664    -3629.754   -3303.3648    439.82477 
    3810  20.565279340263984409    20.565279    20.565279    -5106.337   -6005.0981   -5192.2713   -4121.6418   -3302.2952    423.87602 
    3820  20.562965247323113260    20.562965    20.562965   -4919.1334   -5497.8988    -5197.005   -4062.4965   -3301.6741    414.72794 
    3830  20.558632102922096863    20.558632    20.558632   -3916.4406   -4018.3375   -4341.3707   -3389.6137   -3301.5999    413.95614 
    3840  20.552733892237178281    20.552734    20.552734   -2511.3314   -2171.0273   -3000.1282   -2362.8388   -3301.8846    418.75609 
    3850  20.545884145571726265    20.545884    20.545884   -1188.3136   -573.16793   -1653.8423   -1337.9306   -3302.1463    423.28508 
    3860  20.538658528636297262    20.538659    20.538659   -150.29161    581.07092   -553.03269   -478.91305    -3302.026    421.99328 
    3870  20.531511861555543419    20.531512    20.531512    750.60217    1549.1286    358.48195    344.19597   -3301.4299    413.40426 
    3880  20.524834050515590178    20.524834    20.524834    1768.3053    2635.1625    1297.8502    1371.9032   -3300.6283    401.69159 
    3890  20.519050450208972336     20.51905     20.51905    3021.3659    3893.7521    2449.3362    2721.0094   -3300.1215    394.60145 
    3900  20.514668020032736706    20.514668    20.514668    4406.6309    5142.6497    3818.0011    4259.2419   -3300.3218    398.49876 
    3910  20.512232758285612988    20.512233    20.512233    5654.2826    6075.2895    5225.1162    5662.4422   -3301.2545    413.71654 
    3920  20.512218164830319012    20.512218    20.512218    6393.7233    6331.8834    6302.5622    6546.7243   -3302.5065    433.76141 
    3930  20.514877816640606056    20.514878    20.514878    6317.0465    5677.4322    6621.3587    6652.3486   -3303.4737    449.21024 
    3940  20.520124208580348579    20.520124    20.520124    5301.7564    4151.6949    5890.0056    5863.5686   -3303.6996    453.01478 
    3950  20.527484223320364265    20.527484    20.527484    3451.0581    2072.2185     4077.153    4203.8028   -3303.1066    444.09744 
    3960  20.536147129221269836    20.536147    20.536147     1081.658   -90.675909     1438.989     1896.661   -3302.0558    428.21573 
    3970  20.545099602445290543      20.5451      20.5451   -1357.8373   -1910.3532   -1520.7704   -642.38832   -3301.1594    414.96091 
    3980  20.553314248817606824    20.553314    20.553314   -3435.8303   -3140.4232   -4217.3221   -2949.7456   -3300.8795    411.47355 
    3990  20.559928026564090686    20.559928    20.559928   -4905.4592     -3796.64   -6193.8585   -4725.8789    -3301.217    417.65631 
    4000  20.564343893509857253    20.564344    20.564344   -5771.2097   -4149.6947   -7246.3833   -5917.5512    -3301.776    427.23539 
    4010  20.566228970244161189    20.566229    20.566229   -6188.6354   -4537.1914   -7418.8993   -6609.8154     -3302.07    432.56651 
    4020  20.565451174724888261    20.565451    20.565451   -6266.0287    -5107.036   -6883.0501   -6808.0001   -3301.8078    429.08185 
    4030  20.562034355187563506    20.562034    20.562034   -5925.1419   -5608.5093   -5820.8344   -6346.0821   -3301.0687    417.99836 
    4040  20.556187602904572032    20.556188    20.556188   -4933.4428   -5461.9142   -4313.1599   -5025.2544   -3300.3219    406.64528 
    4050  20.548392794420138330    20.548393    20.548393   -3106.9073   -4186.7036   -2325.8715   -2808.1469   -3300.2032    405.02383 
    4060  20.539469041929809379    20.539469    20.539469   -496.60912   -1701.0211    114.88668    96.307035   -3301.1107    419.50353 
    4070  20.530537815569104509    20.530538    20.530538    2514.3254       1613.5     2706.162    3223.3143    -3302.869    447.51098 
    4080  20.522852046258662995    20.522852    20.522852    5252.0907     4973.325    4883.3505    5899.5964   -3304.7438    477.61946 
    4090  20.517515471156173135    20.517515    20.517515    6983.3702    7424.1692    6096.7258    7429.2156   -3305.8455     495.8127 
    4100  20.515191313647143545    20.515191    20.515191    7264.1536     8289.718    6084.5477    7418.1952   -3305.6122    493.11574 
    4110  20.515935531428219463    20.515936    20.515936    6144.3723    7497.7291    4955.3105    5980.0773   -3304.0332    469.26819 
    4120  20.519227429094467396    20.519227    20.519227     4049.881    5430.9205    3095.7934    3622.9291   -3301.6466    432.71027 
    4130  20.524155222751836902    20.524155    20.524155    1644.7255    2759.6434    1046.6262    1127.9069   -3299.3889    398.13188 
    4140  20.529696746855819356    20.529697    20.529697   -342.59818    275.75584   -602.01211   -701.53826   -3298.1708     379.7599 
    4150  20.535013940024338552    20.535014    20.535014   -1501.8496   -1470.8558   -1492.6655   -1542.0275    -3298.323     382.7248 
    4160  20.539617655100713023    20.539618    20.539618   -1894.0574    -2347.738   -1672.6791   -1661.7552   -3299.4623    401.04531 
    4170  20.543343550756119953    20.543344    20.543344   -1855.6524   -2566.5316   -1456.0363   -1544.3893   -3300.8775    423.66973 
    4180  20.546211524531443615    20.546212    20.546212   -1765.0075   -2506.1607   -1248.9077   -1539.9542     -3301.95    440.99025 
    4190  20.548269256168961050    20.548269    20.548269   -1838.1468   -2464.6503   -1322.8593   -1726.9307   -3302.3384      447.707 
    4200  20.549502753638126507    20.549503    20.549503   -2041.9075   -2506.4526   -1640.2774   -1978.9926   -3302.0775      444.343 
    4210  20.549849016846323480    20.549849    20.549849   -2178.3968     -2516.94    -1971.209   -2047.0413   -3301.5558    436.90457 
    4220  20.549272552382426227    20.549273    20.549273   -2111.4486   -2405.0403   -2149.1818   -1780.1235   -3301.2089    432.13967 
    4230  20.547819505341578861     20.54782     20.54782   -1858.5093   -2165.9266   -2114.6964   -1294.9049   -3301.1707    432.13237 
    4240  20.545610602149029233    20.545611    20.545611   -1536.0547   -1830.9176   -1888.1934   -889.05309   -3301.2168    433.42219 
    4250  20.542794057762776561    20.542794    20.542794    -1247.314   -1400.6009   -1562.0541   -779.28706   -3301.0358    431.19175 
    4260  20.539505351716556447    20.539505    20.539505   -967.28913   -828.28056   -1194.2831   -879.30375   -3300.5709     424.5601 
    4270  20.535879562963568645     20.53588     20.53588   -513.28396   -36.643732    -689.1294   -814.07875   -3300.1094    417.98308 
    4280  20.532123097726149297    20.532123    20.532123    308.12182    1043.1032    99.057018   -217.79475   -3300.0714    417.99474 
    4290  20.528588647425966229    20.528589    20.528589    1536.1093    2398.1218    1176.8461      1033.36   -3300.7045    428.45836 
    4300  20.525783271624028714    20.525783    20.525783    2929.4809     3780.953    2316.8811    2690.6086   -3301.8666    447.18013 
    4310  20.524266011798424358    20.524266    20.524266    4032.9116    4738.8106    3186.1506    4173.7737     -3303.02    465.77926 
    4320  20.524461451159211833    20.524461    20.524461    4376.9901    4833.7208     3481.582    4815.6674   -3303.5112     474.0558 
    4330  20.526474147743407173    20.526474    20.526474    3737.1849    3916.9141     3049.413    4245.2276   -3302.9871    466.49966 
    4340  20.530005256184324480    20.530005    20.530005    2291.3185    2228.6186    1999.9149    2645.4221   -3301.6311    445.99606 
    4350  20.534434186845334835    20.534434    20.534434    587.78614    351.45232     752.1855     659.7206   -3300.0964     422.7435 
    4360  20.539043281029883303    20.539043    20.539043   -790.50009     -1075.03   -259.05565   -1037.4146   -3299.2018    409.47117 
    4370  20.543256550784114722    20.543257    20.543257   -1509.7316   -1654.1191   -862.89219   -2012.1834   -3299.5064    414.83663 
    4380  20.546774162355255555    20.546774    20.546774   -1620.7031   -1468.7347   -1187.7981   -2205.5766   -3300.9685    438.17112 
    4390  20.549548878576150202    20.549549    20.549549   -1483.1406   -1026.2117   -1480.4572   -1942.7529   -3302.9162    469.05549 
    4400  20.551637904255009914    20.551638    20.551638   -1513.2634   -888.62472   -1934.8036    -1716.362   -3304.3855    492.54459 
    4410  20.553032604404194217    20.553033    20.553033   -1941.3862   -1378.0076   -2588.3371   -1857.8139   -3304.6337    497.11027 
    4420  20.553565886122349582    20.553566    20.553566   -2695.6647   -2474.7828   -3264.7465   -2347.4648   -3303.5186    480.51388 
    4430  20.552943126036876009    20.552943    20.552943   -3477.6512   -3823.7755   -3698.9608   -2910.2173   -3301.5354    450.38442 
    4440  20.550865315204607242    20.550865    20.550865   -3942.4443   -4868.7224   -3714.3033   -3244.3072   -3299.5311    419.81076 
    4450  20.547170682335377023    20.547171    20.547171   -3852.7814   -5095.0643   -3285.5214   -3177.7585   -3298.2455    400.26061 
    4460  20.541932197279468397    20.541932    20.541932   -3115.6881   -4229.1462    -2490.442   -2627.4761   -3297.9534    396.05134 
    4470  20.535493344991042619    20.535493    20.535493   -1756.0954   -2332.0153   -1437.9772   -1498.2936   -3298.4336    403.85193 
    4480  20.528450784773959015    20.528451    20.528451    72.769386    196.62628   -214.64632    236.32819   -3299.2083    416.36061 
    4490  20.521581995360605788    20.521582    20.521582    2070.4839    2733.8982    1127.0633    2350.4903   -3299.8495    426.98438 
    4500  20.515717050396730770    20.515717    20.515717     3897.464     4722.374    2554.2649    4415.7531    -3300.202     433.2721 
    4510  20.511599999796267468      20.5116      20.5116    5330.8846    5954.0635    3995.3395    6043.2509   -3300.4246    437.57351 
    4520  20.509797263355725505    20.509797    20.509797    6250.0649     6501.638    5272.6241    6975.9325   -3300.8051    444.22265 
    4530  20.510648661040924878    20.510649    20.510649    6552.0611    6455.5984     6130.608    7069.9767    -3301.467    455.04954 
    4540  20.514230120223814424     20.51423     20.51423    6157.5601     5831.686    6290.7414    6350.2529   -3302.2208     467.0988 
    4550  20.520325024326588448    20.520325    20.520325    5014.3409    4592.3478    5509.9202    4940.7547   -3302.6778    474.42067 
    4560  20.528407347956346030    20.528407    20.528407    3145.3836    2756.1328    3731.8648    2948.1533   -3302.5262    472.31954 
    4570  20.537657093179973344    20.537657    20.537657    726.12501    483.46727    1189.2158    505.69199   -3301.7674    460.97772 
    4580  20.547037565431050865    20.547038    20.547038   -1914.1448   -1963.2115   -1662.3044   -2116.9185   -3300.7562    445.99092 
    4590  20.555438197019444857    20.555438    20.555438   -4320.0109   -4215.9034   -4259.3693     -4484.76   -3299.9946    435.10805 
    4600  20.561865562939207308    20.561866    20.561866   -6058.1444   -5872.5142   -6125.1227   -6176.7963   -3299.8025    433.13153 
    4610  20.565620653199182755    20.565621    20.565621   -6922.8853    -6720.382   -7040.5296   -7007.7445    -3300.124    439.00982 
    4620  20.566382196438723895    20.566382    20.566382   -6958.6046   -6788.1233   -7071.0165   -7016.6739    -3300.605    447.13551 
    4630  20.564187103245885169    20.564187    20.564187   -6316.2552    -6177.396   -6431.0651   -6340.3046   -3300.8262     451.0011 
    4640  20.559362218166484126    20.559362    20.559362   -5158.8811   -4977.2288   -5317.4686   -5181.9458   -3300.5411    446.85805 
    4650  20.552450361277777802     20.55245     20.55245   -3610.5812   -3286.6281   -3809.8131   -3735.3025   -3299.8453    436.30678 
    4660  20.544152689360203112    20.544153    20.544153   -1745.2219   -1287.1418   -1877.6673   -2070.8568   -3299.1956    426.55845 
    4670  20.535290156207160805     20.53529     20.53529    357.36314    756.85494    447.60747   -132.37299   -3299.1669    426.62483 
    4680  20.526764079886163472    20.526764    20.526764    2568.9749    2645.7512    2932.4404     2128.733   -3300.0134    440.49346 
    4690  20.519495741900023233    20.519496    20.519496    4632.2649    4241.1508    5157.1529    4498.4908   -3301.4085    463.05756 
    4700  20.514316164095944828    20.514316    20.514316    6149.6592    5356.1322    6642.0688    6450.7766   -3302.6333    483.03085 
    4710  20.511809535188859854     20.51181     20.51181    6779.2258    5786.9978    7076.5968    7474.0826   -3303.0386    490.17479 
    4720  20.512180545566913281    20.512181    20.512181    6363.1345    5349.8008    6424.0119     7315.591   -3302.4077    481.02112 
    4730  20.515199452150277182    20.515199    20.515199    4984.7515    4042.7744    4903.6389    6007.8412   -3301.0208     459.9457 
    4740  20.520245905082372673    20.520246    20.520246    2993.7544    2194.3764    2941.7388    3845.1481   -3299.4978    436.68991 
    4750  20.526461447411346484    20.526461    20.526461     969.4599    392.62673    1093.8741    1421.8789   -3298.5203    421.96201 
    4760  20.532987327791843768    20.532987    20.532987   -555.21091   -850.36268   -240.80888   -574.46118   -3298.5108    422.36655 
    4770  20.539177995313924185    20.539178    20.539178   -1406.6818   -1384.1769   -1063.0308   -1772.8376   -3299.4148    437.03166 
    4780  20.544670564536794188    20.544671    20.544671   -1795.5438   -1459.1183   -1670.1539   -2257.3593   -3300.7365    458.23028 
    4790  20.549300737136626083    20.549301    20.549301   -2051.6303   -1514.5001   -2302.2841   -2338.1066   -3301.8257    475.85008 
    4800  20.552968093231704927    20.552968    20.552968   -2397.5884   -1900.4889   -2984.4293    -2307.847   -3302.1811    482.10045 
    4810  20.555539953490288951     20.55554     20.55554   -2925.4383   -2729.2241   -3641.0502   -2406.0407   -3301.6996    475.35806 
    4820  20.556816245646729158    20.556816    20.556816   -3526.3284   -3742.9755   -4102.4371   -2733.5728   -3300.7794    461.76527 
    4830  20.556575256721465905    20.556575    20.556575   -3942.8289   -4457.1506   -4157.7445   -3213.5916   -3300.0376    450.85702 
    4840  20.554678781244994923    20.554679    20.554679    -3915.244   -4473.6832    -3669.764   -3602.2849   -3299.8085    447.80049 
    4850  20.551174618024013796    20.551175    20.551175   -3359.8256    -3722.011    -2739.117   -3618.3488   -3299.9672    450.69147 
    4860  20.546327300878466815    20.546327    20.546327   -2396.9123   -2438.1974    -1653.108   -3099.4317   -3300.1761     454.3527 
    4870  20.540565920452380055    20.540566    20.540566   -1248.5762   -992.47995   -674.83759   -2078.4111   -3300.1576    454.53648 
    4880  20.534390411042142688     20.53439     20.53439   -103.96353     299.3903    102.19654   -713.47742   -3299.8312    450.02265 
    4890  20.528293772534940587    20.528294    20.528294    996.51012    1344.1752    814.27157    831.08354   -3299.3801      443.653 
    4900  20.522742758883531167    20.522743    20.522743    2101.1984     2231.626    1664.8285    2407.1407   -3299.1556    440.86206 
    4910  20.518192908519509388    20.518193    20.518193    3195.8989    3055.3003     2718.534    3813.8623   -3299.3908    445.23867 
    4920  20.515082443332339324    20.515082    20.515082    4174.5994    3828.0081    3845.9946    4849.7956     -3299.99     455.2598 
    4930  20.513789123091662248    20.513789    20.513789    4852.9425     4432.441    4723.7971    5402.5895   -3300.5928    465.28056 
    4940  20.514554948546404489    20.514555    20.514555    4987.2453    4604.9557    4973.1634    5383.6168   -3300.8219    469.39958 
    4950  20.517390036959923805     20.51739     20.51739    4383.9714    4071.0996     4380.102    4700.7126   -3300.5111    465.03257 
    4960  20.522003456564419821    20.522003    20.522003    3109.6479    2832.6396    3062.8375    3433.4666   -3299.7795    454.08214 
    4970  20.527835603691794830    20.527836    20.527836     1485.671    1205.2937    1386.4977    1865.2216   -3298.9742    442.02354 
    4980  20.534190606377151767    20.534191    20.534191   -107.67463   -388.81931   -277.12537     342.9208   -3298.5569    436.07979 
    4990  20.540393602476264334    20.540394    20.540394   -1382.4149   -1602.7198    -1685.125   -859.39994   -3298.8854    441.80701 
    5000  20.545911456585411514    20.545911    20.545911   -2188.0995   -2258.2491   -2691.5112   -1614.5383   -3299.9312    458.73123 
    5010  20.550412536867906255    20.550413    20.550413   -2573.2036    -2457.447   -3256.2383   -2005.9256   -3301.2159    479.39255 
    5020  20.553741513550356501    20.553742    20.553742   -2820.3707    -2576.813   -3548.2472    -2336.052   -3302.0803    493.53582 
    5030  20.555801468128599652    20.555801    20.555801   -3289.7576   -3010.7663   -3921.2746   -2937.2319    -3302.035     493.5489 
    5040  20.556411913651096768    20.556412    20.556412   -4081.4829   -3843.3335   -4577.5834   -3823.5319   -3300.9818    477.87512 
    5050  20.555275556159422479    20.555276    20.555276   -4845.8087   -4679.2656   -5250.5214   -4607.6392   -3299.3052    452.41943 
    5060  20.552121582373125364    20.552122    20.552122   -5007.5845   -4891.6201   -5351.4503   -4779.6831   -3297.7476    428.64765 
    5070  20.546935115744474842    20.546935    20.546935   -4185.0966   -4129.8819   -4413.2849   -4012.1229   -3297.0268    417.72346 
    5080  20.540108076083889443    20.540108    20.540108   -2367.2058   -2466.0425   -2355.4494   -2280.1256   -3297.4461    424.48961 
    5090  20.532436366280677476    20.532436    20.532436    136.11706   -247.60289    501.73556    154.21852   -3298.7762    445.56726 
    5100  20.524980977676122507    20.524981    20.524981    2784.4549    2045.9416    3510.9265    2796.4968   -3300.4552    472.32808 
    5110  20.518837483062952742    20.518837    20.518837    4968.8831    3952.0216    5873.9429    5080.6848   -3301.8932    495.54372 
    5120  20.514885144843759690    20.514885    20.514885    6225.6623    5183.6102    6969.3289    6524.0477   -3302.7001    508.97583 
    5130  20.513607283871699849    20.513607    20.513607    6469.1553    5763.3811    6702.8096    6941.2752   -3302.7547    510.57504 
    5140  20.515060111309274760     20.51506     20.51506    5859.6884    5749.9422    5405.0774    6424.0456   -3302.1423    501.61181 
    5150  20.518940214275133371     20.51894     20.51894    4558.9102    5048.3003    3516.4511    5111.9793    -3301.098    485.79339 
    5160  20.524658907821901721    20.524659    20.524659    2728.3575    3613.3549    1459.9966    3111.7211    -3299.957    468.44225 
    5170  20.531417642159048853    20.531418    20.531418    620.67355    1611.1229   -387.55186    638.44955   -3299.0179    454.31376 
    5180  20.538315496917576297    20.538315    20.538315   -1449.0036   -637.49916   -1813.3031   -1896.2086   -3298.3844    445.08394 
    5190  20.544482013975095214    20.544482    20.544482    -3175.195   -2746.0149   -2777.2964   -4002.2737   -3297.9967    439.79771 
    5200  20.549204642243687147    20.549205    20.549205   -4325.9364   -4332.7023    -3310.442   -5334.6649   -3297.8381     438.1069 
    5210  20.552024955172448983    20.552025    20.552025   -4771.5306   -5085.8151    -3472.839   -5755.9376   -3298.0234    441.69354 
    5220  20.552789263663534314    20.552789    20.552789   -4508.1991   -4880.5185   -3372.1241   -5271.9549   -3298.6272    451.66243 
    5230  20.551643919195257126    20.551644    20.551644    -3675.796   -3894.4412   -3081.8692   -4051.0775   -3299.4841    465.47008 
    5240  20.548971617182296256    20.548972    20.548972   -2517.1456   -2560.3592   -2546.1058   -2444.9718   -3300.2456    477.77037 
    5250  20.545284630677340232    20.545285    20.545285   -1330.5442   -1337.9694   -1745.9356   -907.72765   -3300.5968    483.73746 
    5260  20.541097000633520508    20.541097    20.541097   -404.65325   -481.58926   -863.85935    131.48887   -3300.3946    481.16718 
    5270  20.536806246097039974    20.536806    20.536806    120.54922    24.374425   -132.37744    469.65067   -3299.7223    471.33771 
    5280  20.532643302153651632    20.532643    20.532643    412.36125    422.93555    417.73135    396.41687   -3298.8769    458.82713 
    5290  20.528739465400601460    20.528739    20.528739    749.96148    952.25091     850.3308    447.30274   -3298.2082    449.05688 
    5300  20.525236032105965478    20.525236    20.525236    1234.4745    1649.0533    1190.9491    863.42101   -3297.9567    445.76055 
    5310  20.522327508165819410    20.522328    20.522328    1793.2326     2392.522    1482.1386    1505.0372   -3298.2134     450.3549 
    5320  20.520234133130902165    20.520234    20.520234     2306.337     3000.125    1756.9094    2161.9767   -3298.8397    460.68789 
    5330  20.519154383781000206    20.519154    20.519154    2689.2013    3323.1801    2001.1427    2743.2812   -3299.4462    470.70823 
    5340  20.519228476198030364    20.519228    20.519228    2871.0001     3294.699    2165.4439    3152.8575   -3299.6687    474.75177 
    5350  20.520510204725667336     20.52051     20.52051    2805.3016    2985.5554    2204.0051    3226.3443   -3299.4912    472.55251 
    5360  20.522948940951803110    20.522949    20.522949    2462.7894    2573.4378    2009.3271    2805.6032   -3299.1937    468.45367 
    5370  20.526379274279463516    20.526379    20.526379    1856.5683    2192.2017    1455.8501    1921.6532   -3299.0501    466.72171 
    5380  20.530533484720201898    20.530533    20.530533    1164.6457    1894.2081    655.27199    944.45702   -3299.2325    470.05941 
    5390  20.535114407124570590    20.535114    20.535114    605.36692    1658.6525   -112.34831    269.79653   -3299.8346    479.93615 
    5400  20.539876850337883241    20.539877    20.539877    159.70567      1324.58    -755.3285   -90.134498   -3300.7399    494.55096 
    5410  20.544620922399381868    20.544621    20.544621   -376.38784    655.88523   -1375.9253   -409.12346    -3301.548    507.69603 
    5420  20.549112540381614167    20.549113    20.549113   -1183.5283    -514.6551   -2084.1772   -951.75262   -3301.7756    511.88636 
    5430  20.553009634078033940     20.55301     20.55301    -2341.021   -2181.5567    -2978.764   -1862.7423   -3301.1907    503.51336 
    5440  20.555830986750407874    20.555831    20.555831   -3788.7643   -4072.9516   -4138.2669   -3155.0742   -3299.9419    484.85058 
    5450  20.556991435038952432    20.556991    20.556991   -5159.1034   -5573.5833   -5358.3878   -4545.3391   -3298.4346    462.11092 
    5460  20.555959348191031211    20.555959    20.555959   -5842.1718   -5972.7327   -6069.9963   -5483.7865   -3297.1502    442.66743 
    5470  20.552499466469697609    20.552499    20.552499   -5424.2196   -4998.2093   -5753.4116   -5521.0379   -3296.5339    433.40002 
    5480  20.546835027965030918    20.546835    20.546835   -3938.0737    -2965.816   -4294.0769   -4554.3281   -3296.8999    439.27426 
    5490  20.539629323616381384    20.539629    20.539629    -1733.475   -448.89443   -1994.3016   -2757.2291   -3298.2274    460.14927 
    5500  20.531835037168264080    20.531835    20.531835    741.18702    2011.3875    608.94835   -396.77482   -3300.0128    488.35623 
[...]
    8630  20.540997757639523513    20.540998    20.540998   -2468.3482   -2480.5597   -2519.1194   -2405.3654   -3295.6693    570.38504 
    8640  20.541793210541221981    20.541793    20.541793   -2238.4296   -2032.4897    -2333.914   -2348.8852    -3295.829    573.26837 
    8650  20.541620801802373819    20.541621    20.541621   -2194.5868   -1829.8984   -2529.8188   -2224.0431   -3295.5306    569.01554 
    8660  20.540509628006553555     20.54051     20.54051   -2464.4893   -2083.9147    -3127.884   -2181.6693    -3294.706    556.57107 
    8670  20.538368135602915743    20.538368    20.538368   -2809.6518   -2549.8673   -3719.8301   -2159.2581   -3293.4953    538.09595 
    8680  20.535082772205210944    20.535083    20.535083   -2776.7631   -2678.2749   -3741.1019   -1910.9124   -3292.3775    521.00628 
    8690  20.530697248048667802    20.530697    20.530697   -2064.3967   -2075.4632   -2814.7344   -1302.9924   -3291.9186    514.10857 
    8700  20.525532445498718914    20.525532    20.525532   -685.12118   -717.03122   -956.98534   -381.34697   -3292.4236    522.19924 
    8710  20.520177767013045411    20.520178    20.520178    1103.6382    1135.1024    1400.4368    775.37553   -3293.8017    543.93973 
    8720  20.515382245006438922    20.515382    20.515382     2947.922    3067.6615    3653.8317    2122.2729   -3295.5745    571.91897 
    8730  20.511903830330908249    20.511904    20.511904    4460.0583    4595.6615    5283.6191    3500.8943   -3297.0602    595.50344 
    8740  20.510345264354398864    20.510345    20.510345    5221.4829    5235.7918    5906.6269    4522.0299   -3297.7345    606.44809 
    8750  20.510986193703001135    20.510986    20.510986    4939.8301    4709.0498    5385.8191    4724.6213   -3297.4473    602.34939 
    8760  20.513675865321769010    20.513676    20.513676    3695.9027    3174.2099    3994.0354    3919.4628   -3296.3536     585.6276 
    8770  20.517871665733906639    20.517872    20.517872    1907.6814    1167.6571    2223.5837    2331.8035   -3294.7677      561.257 
    8780  20.522813380556168994    20.522813    20.522813    111.94894   -607.63493    484.62201    458.85974   -3293.1197    535.98916 
    8790  20.527740640779761350    20.527741    20.527741   -1352.2619   -1710.4256   -1065.2747   -1281.0854   -3291.9056    517.53476 
    8800  20.532036200043542351    20.532036    20.532036   -2364.1073   -2123.8415   -2370.5716   -2597.9087    -3291.512    511.85711 
    8810  20.535281762871214539    20.535282    20.535282   -2865.9419   -2062.5368   -3312.4848   -3222.8043   -3292.0087    519.99206 
    8820  20.537280075551720415     20.53728     20.53728   -2859.7849   -1770.7064   -3759.6208   -3049.0277   -3293.0866    537.11568 
    8830  20.538050879567570917    20.538051    20.538051   -2418.2746   -1387.2621   -3637.9962   -2229.5654   -3294.2607    555.70181 
    8840  20.537794100158549782    20.537794    20.537794   -1743.1516    -1003.049   -3060.5042   -1165.9014   -3295.1674    570.12331 
    8850  20.536801481628806698    20.536801    20.536801   -1154.9948   -721.14151   -2375.8018   -368.04116   -3295.6529    578.00734 
    8860  20.535325516806782531    20.535326    20.535326   -894.89472   -657.97723   -1901.6184   -125.08852   -3295.6608    578.48342 
    8870  20.533487542395945979    20.533488    20.533488   -881.04152   -823.02168   -1591.0334   -229.06951   -3295.1807    571.38852 
    8880  20.531308361283493014    20.531308    20.531308   -867.04611    -1095.642   -1248.2089   -257.28738   -3294.3575     558.9608 
    8890  20.528804336738367908    20.528804    20.528804   -703.31086   -1261.7883   -810.50301   -37.641264    -3293.493    545.88294 
    8900  20.526053285865636155    20.526053    20.526053   -303.96215   -1045.0531   -253.64185    386.80848   -3292.9087    537.14902 
    8910  20.523229499603051096    20.523229    20.523229    352.03997    -347.2114    445.73297    957.59836    -3292.833    536.31634 
    8920  20.520610719697003788    20.520611    20.520611    1218.1798    710.36442    1309.2216    1634.9535   -3293.3559    544.79284 
    8930  20.518556132333834796    20.518556    20.518556    2159.1619    1956.5416     2245.069    2275.8753   -3294.3618    560.78026 
    8940  20.517445723538109803    20.517446    20.517446    2911.0995    3180.7225    2868.3964    2684.1795   -3295.4543    578.11031 
    8950  20.517573490920923973    20.517573    20.517573    3208.8351    4085.5569    2738.9205    2802.0278   -3296.0937    588.38344 
    8960  20.519039741652637332     20.51904     20.51904    2868.0763    4251.2145    1701.6705     2651.344   -3295.9561    586.55985 
    8970  20.521676458256710163    20.521676    20.521676    1809.6724    3316.8262   -71.251819    2183.4429   -3295.1545    574.41288 
    8980  20.525023856435925751    20.525024    20.525024    222.18454    1389.6402   -2079.1279    1356.0414   -3294.0622    557.78058 
    8990  20.528416277060898665    20.528416    20.528416   -1391.6825    -810.3456   -3639.0131    274.31114   -3293.0454    542.37425 
    9000  20.531186251378926499    20.531186    20.531186   -2526.5493   -2458.4469   -4253.9435   -867.25742   -3292.4379    533.35025 
    9010  20.532869728841628643     20.53287     20.53287   -2948.2317   -3145.5481   -3900.5782   -1798.5689    -3292.474    534.29237 
    9020  20.533299958831165100      20.5333      20.5333   -2767.4492   -2981.7913   -3060.2935   -2260.2629   -3293.0957    544.27607 
    9030  20.532563263418985855    20.532563    20.532563   -2258.7183   -2319.3706   -2237.0428   -2219.7414   -3293.9021    557.09407 
    9040  20.530885218730766439    20.530885    20.530885   -1666.7003   -1526.2348   -1608.9978   -1864.8683   -3294.3872    564.92257 
    9050  20.528527867732435652    20.528528    20.528528   -1110.3312    -843.5982   -1143.5889   -1343.8065   -3294.3457    564.59256 
    9060  20.525740630655207042    20.525741    20.525741    -523.1595   -206.33586   -715.61152   -647.53111   -3294.0397    560.17139 
    9070  20.522786498643100117    20.522786    20.522786    274.54252    651.16254   -99.686637    272.15167   -3293.9361    558.90586 
    9080  20.520007522514671194    20.520008    20.520008    1313.6928      1779.68    822.11225    1339.2862   -3294.3057    565.00613 
    9090  20.517834124181725031    20.517834    20.517834    2392.5934    2913.9987    1909.3254    2354.4562   -3295.0652    577.17368 
    9100  20.516699937913607243      20.5167      20.5167    3129.9668     3657.818    2743.5445    2988.5378   -3295.8515    589.74911 
    9110  20.516888659838595999    20.516889    20.516889    3194.5641    3756.6131    2832.8673    2994.2118   -3296.1839    595.24283 
    9120  20.518406696723239691    20.518407    20.518407    2566.6149     3237.826    2007.1416    2454.8772   -3295.7166    588.28687 
    9130  20.520976541656715142    20.520977    20.520977    1486.1681    2275.8929    556.49929    1626.1122   -3294.4846    569.45692 
    9140  20.524136790564082133    20.524137    20.524137    290.96272    1117.8748   -996.04325    751.05661   -3292.9643    546.17443 
    9150  20.527382772032741087    20.527383    20.527383    -714.0424    69.164407   -2202.5356    -8.756008   -3291.8568    529.32463 
    9160  20.530292639918599207    20.530293    20.530293   -1358.0443   -660.30253   -2771.6707   -642.15975    -3291.698    527.20607 
    9170  20.532600056924430021      20.5326      20.5326   -1588.7586    -1011.416   -2598.9078   -1155.9521   -3292.5229    540.34632 
    9180  20.534212279604965090    20.534212    20.534212   -1516.5722    -1053.518   -1916.6453   -1579.5534   -3293.8205    560.81368 
    9190  20.535160539519900169    20.535161    20.535161   -1406.4271   -970.93103   -1259.1376   -1989.2126   -3294.8564    577.22524 
    9200  20.535494914656911902    20.535495    20.535495   -1446.5986   -928.94378   -1082.8128   -2328.0392   -3295.1305    581.82126 
    9210  20.535207493747602570    20.535207    20.535207   -1643.7997   -976.92969   -1544.8169   -2409.6526   -3294.6034    573.98326 
    9220  20.534228681175491715    20.534229    20.534229   -1861.2266   -1035.9102   -2450.5842   -2097.1852   -3293.6571    559.62309 
    9230  20.532485543626052049    20.532486    20.532486   -1852.4253   -886.18641   -3285.9803   -1385.1091   -3292.8844    547.92593 
    9240  20.530001762544852539    20.530002    20.530002   -1404.7065   -346.28974   -3485.6915   -382.13828   -3292.7408    545.96441 
    9250  20.526978112371956797    20.526978    20.526978   -552.56575    484.40904   -2823.7038    681.59748   -3293.2617    554.32066 
    9260  20.523774967555269200    20.523775    20.523775    427.75778    1232.2549   -1488.6042    1539.6227   -3294.0642    567.08252 
    9270  20.520798636809537641    20.520799    20.520799    1194.9366      1492.75    69.501022    2022.5587   -3294.6406    576.37936 
    9280  20.518363381980769589    20.518363    20.518363    1551.0421    1175.2919    1335.3101    2142.5243   -3294.6747    577.28216 
    9290  20.516613036821965466    20.516613    20.516613    1545.0979    606.13809    1974.4451    2054.7105   -3294.1454    569.44004 
    9300  20.515543207814022963    20.515543    20.515543    1419.7084     305.5195    1983.6415    1969.9643   -3293.3064    556.77559 
    9310  20.515098618173972511    20.515099    20.515099    1404.1972    600.43825    1596.6438    2015.5095   -3292.6413    546.78929 
    9320  20.515264256484982752    20.515264    20.515264    1525.5284    1446.0607    1043.5366     2086.988   -3292.6002    546.46154 
    9330  20.516074546797078426    20.516075    20.516075    1576.0935    2380.8803    373.62579    1973.7745   -3293.2126    556.25254 
    9340  20.517534253489223772    20.517534    20.517534    1366.6287    2805.0077   -401.91682    1696.7954   -3294.0451    569.45236 
    9350  20.519547539674587000    20.519548    20.519548    948.03928    2489.5807   -1114.6623    1469.1994   -3294.5386    577.40081 
    9360  20.521932936669813330    20.521933    20.521933    426.88973    1560.2521   -1557.0681    1277.4852   -3294.3677    575.06003 
    9370  20.524464699934629408    20.524465    20.524465   -173.98224    249.79278    -1658.318    886.57852   -3293.6102    563.63648 
    9380  20.526886590714006786    20.526887    20.526887   -824.83369   -1156.5356   -1549.2462    231.28077   -3292.6944    549.77175 
    9390  20.528929572680162607     20.52893     20.52893   -1369.6647   -2272.3879   -1361.6589   -474.94745   -3292.1518    541.69773 
    9400  20.530374800246992351    20.530375    20.530375   -1614.3435   -2747.4067   -1097.3375    -998.2862   -3292.3209    544.65644 
    9410  20.531132007513111404    20.531132    20.531132   -1428.0072   -2438.4524   -677.67292   -1167.8964   -3293.1728    558.19317 
    9420  20.531290631874988151    20.531291    20.531291   -823.07244    -1495.254   -94.685923    -879.2774    -3294.361    576.94113 
    9430  20.531108142106845094    20.531108    20.531108    -37.90897   -338.57454    427.45115   -202.60351   -3295.4451    594.07936 
    9440  20.530909953835070780     20.53091     20.53091    564.41593    545.95779    559.87755    587.41244   -3296.0955    604.49878 
    9450  20.530943033708219048    20.530943    20.530943     733.7265    870.11037    199.86625    1131.2029   -3296.1928    606.34036 
    9460  20.531276216549301239    20.531276    20.531276    474.20867    655.65359   -415.02677    1181.9992   -3295.8245    600.95121 
    9470  20.531799419470189605    20.531799    20.531799   -76.799059    93.177867    -1002.502    678.92699   -3295.2082    591.70888 
    9480  20.532281704057460558    20.532282    20.532282   -749.17736   -599.56931   -1417.3788   -230.58395   -3294.5923    582.46301 
    9490  20.532443578784285165    20.532444    20.532444   -1386.6662   -1264.4569   -1661.7844   -1233.7573   -3294.1207    575.44628 
    9500  20.532021660237365523    20.532022    20.532022   -1913.6778   -1795.2766   -1931.3746   -2014.3822   -3293.7354    569.74873 
    9510  20.530800299646017493      20.5308      20.5308   -2326.7147   -2121.9032   -2451.9612   -2406.2798   -3293.2394    562.30844 
    9520  20.528619380518243531    20.528619    20.528619    -2538.182   -2185.2512   -3110.6295   -2318.6651   -3292.5151    551.29569 
    9530  20.525409459226409581    20.525409    20.525409   -2392.9387   -1937.5817   -3484.8674   -1756.3669   -3291.7011    538.85775 
    9540  20.521253853357855235    20.521254    20.521254   -1742.0563   -1261.2981   -3141.8848   -822.98602   -3291.1155    529.95081 
    9550  20.516444413146825099    20.516444    20.516444   -578.35754   -76.014669   -1944.3391     285.2812   -3291.0146    528.59571 
    9560  20.511477140567613731    20.511477    20.511477     888.9993    1461.2798   -123.53638    1329.2545   -3291.4611    535.81275 
    9570  20.506967097935500988    20.506967    20.506967    2418.2267    3030.3412    1986.2091    2238.1297   -3292.3039    549.26423 
    9580  20.503548115694297138    20.503548    20.503548    3842.5156    4358.1467    4042.6341    3126.7661    -3293.216     563.8386 
    9590  20.501796884772510055    20.501797    20.501797    4941.6755    5219.7659    5583.5503    4021.7101   -3293.8678    574.35027 
    9600  20.502142461076868329    20.502142    20.502142    5451.4776    5422.6329    6183.3903    4748.4096   -3294.1356    578.79538 
    9610  20.504761646597035707    20.504762    20.504762    5171.7196    4868.7826    5687.9091    4958.4671   -3294.1122    578.57744 
    9620  20.509501964938628760    20.509502    20.509502    4061.4257    3578.5054    4292.8731    4312.8985   -3293.8801    575.01967 
    9630  20.515870828703665296    20.515871    20.515871    2303.1019    1738.5969    2419.5188      2751.19   -3293.4193    567.93257 
    9640  20.523113332208819060    20.523113    20.523113      249.676   -249.95684    446.86914    552.11569    -3292.836     559.0807 
    9650  20.530361596709010286    20.530362    20.530362   -1664.5225   -1877.5967   -1339.6062   -1776.3644    -3292.463    553.66138 
    9660  20.536813634106856341    20.536814    20.536814   -3107.4037   -2827.7548   -2743.7827   -3750.6737   -3292.6003    556.27823 
    9670  20.541871596836465130    20.541872    20.541872   -3932.9749   -3099.7031   -3677.3791   -5021.8425   -3293.2645    567.09597 
    9680  20.545204036635738021    20.545204    20.545204   -4137.9678   -2954.8246   -4092.8062   -5366.2727   -3294.2284     582.5131 
    9690  20.546744859923435911    20.546745    20.546745   -3852.1185   -2734.5828   -3993.6402   -4828.1324   -3295.1561    597.28383 
    9700  20.546633123286845546    20.546633    20.546633   -3353.1908   -2684.0941   -3605.4059   -3770.0724   -3295.6774    605.67508 
    9710  20.545096671701635671    20.545097    20.545097   -2925.5717   -2833.0211   -3270.2374   -2673.4566   -3295.5185     603.4617 
    9720  20.542337122872194044    20.542337    20.542337   -2650.6076   -2990.9984   -3076.3725    -1884.452   -3294.6986    590.95881 
    9730  20.538497439520689625    20.538497    20.538497   -2358.5781   -2901.3568    -2815.298   -1359.0794   -3293.5708    573.64672 
    9740  20.533729346820315698    20.533729    20.533729   -1788.4439   -2333.6679   -2279.4578   -752.20589   -3292.6356    559.30477 
    9750  20.528296137362005425    20.528296    20.528296   -800.15361   -1162.3395   -1400.4085    162.28718   -3292.2723       553.86 
    9760  20.522625240349324116    20.522625    20.522625    499.81575    454.10115   -238.12746    1283.4736   -3292.5661    558.67746 
    9770  20.517261469629062276    20.517261    20.517261    1819.0049    2074.5196    1071.1772     2311.318    -3293.298    570.37751 
    9780  20.512749337113291404    20.512749    20.512749    2901.2586    3295.2602    2364.0603    3044.4553   -3294.0404    582.30032 
    9790  20.509528058651021354    20.509528    20.509528    3623.9286    3942.2438    3484.0009    3445.5411   -3294.3202    587.05314 
    9800  20.507880274153183819     20.50788     20.50788     3950.467     4016.452    4244.8472    3590.1018   -3293.9449    581.59978 
    9810  20.507918134585182202    20.507918    20.507918    3873.2466    3559.2794    4434.3289    3626.1316   -3293.2391    570.93807 
    9820  20.509581842835736154    20.509582    20.509582    3393.1717    2612.3347    3931.9925     3635.188   -3292.7591    563.69867 
    9830  20.512647505055483066    20.512648    20.512648    2629.6897    1426.3897    2855.2992    3607.3801   -3292.8005    564.49813 
    9840  20.516779588603633044     20.51678     20.51678    1801.6995    402.42519    1566.8302    3435.8431    -3293.261    571.79733 
    9850  20.521613372388372909    20.521613    20.521613    942.01927   -332.63643    329.61582    2829.0784   -3293.7794    580.02692 
    9860  20.526766674892904518    20.526767    20.526767   -139.37819   -1065.6338   -869.96077      1517.46   -3293.9258    582.54425 
    9870  20.531775581786476437    20.531776    20.531776   -1437.8877   -1996.4503   -1966.8619   -350.35111   -3293.4463    575.43446 
    9880  20.536103012849899585    20.536103    20.536103   -2625.6518   -2968.4243   -2753.2825   -2155.2487   -3292.4991    561.13044 
    9890  20.539262202922909495    20.539262    20.539262    -3468.092   -3801.4527   -3227.5278   -3375.2955   -3291.6017    547.60454 
    9900  20.540916052480838516    20.540916    20.540916   -3853.4206   -4282.6168   -3469.0521   -3808.5929   -3291.3063    543.36357 
    9910  20.540929660350826680     20.54093     20.54093   -3648.8945    -4105.423   -3419.9275   -3421.3331   -3291.8107    551.44892 
    9920  20.539413517051272606    20.539414    20.539414   -2940.4475   -3260.3339   -3071.7425    -2489.266   -3292.7576    566.34059 
    9930  20.536680226286698314     20.53668     20.53668   -2090.8617   -2166.0622   -2575.7964   -1530.7265   -3293.6112    579.77583 
    9940  20.533101149800437213    20.533101    20.533101   -1370.4244   -1181.3114   -2057.0667   -872.89517   -3294.0627    586.98831 
    9950  20.528998248144603167    20.528998    20.528998   -736.63165   -284.01685   -1430.2223   -495.65582   -3293.9512    585.49309 
    9960  20.524657101009648130    20.524657    20.524657    12.382882    725.06402   -515.60472   -172.31065   -3293.2943    575.57459 
    9970  20.520401503710033353    20.520402    20.520402    933.73147    1887.9791    657.52723    255.68805   -3292.5402    564.18694 
    9980  20.516614973625586060    20.516615    20.516615    1876.1593    3008.2885    1820.3933    799.79608    -3292.344     561.4837 
    9990  20.513680481764218655     20.51368     20.51368     2623.162    3801.8297    2659.5494    1408.1069   -3292.9147    570.68221 
    9999  20.512017069013815274    20.512017    20.512017    3044.0934    4124.8565    3045.4596    1961.9642   -3293.7473    583.89449 
Loop time of 3.89741 on 4 procs for 9999 steps with 500 atoms

Performance: 221.664 ns/day, 0.108 hours/ns, 2565.551 timesteps/s
97.6% CPU use with 4 MPI tasks x no OpenMP threads

MPI task timing breakdown:
Section |  min time  |  avg time  |  max time  |%varavg| %total
---------------------------------------------------------------
Pair    | 2.2323     | 2.7217     | 3.2987     |  23.0 | 69.83
Neigh   | 0          | 0          | 0          |   0.0 |  0.00
Comm    | 0.3642     | 0.91691    | 1.3838     |  38.0 | 23.53
Output  | 0.068397   | 0.070027   | 0.074573   |   1.0 |  1.80
Modify  | 0.1277     | 0.14552    | 0.16625    |   4.7 |  3.73
Other   |            | 0.04329    |            |       |  1.11

Nlocal:    125 ave 180 max 80 min
Histogram: 1 0 0 0 2 0 0 0 0 1
Nghost:    1099 ave 1144 max 1044 min
Histogram: 1 0 0 0 0 0 2 0 0 1
Neighs:    8375 ave 12060 max 5360 min
Histogram: 1 0 0 0 2 0 0 0 0 1

Total # of neighbors = 33500
Ave neighs/atom = 67
Neighbor list builds = 0
Dangerous builds = 0

#-------------------------------------------------
Total wall time: 0:00:03
