ITEM: TIMESTEP
0
ITEM: NUMBER OF ATOMS
250
ITEM: BOX BOUNDS pp pp pp
2.1246542862245494e+00 1.7875345713775143e+01
2.1246542862245494e+00 1.7875345713775143e+01
2.1246542862245494e+00 1.7875345713775143e+01
ITEM: ATOMS id type x y z 
1 1 2.12465 2.12465 2.12465 
2 1 3.69972 3.69972 3.69972 
3 1 5.27479 2.12465 2.12465 
11 1 2.12465 5.27479 2.12465 
13 1 5.27479 5.27479 2.12465 
26 1 2.12465 2.12465 5.27479 
28 1 5.27479 2.12465 5.27479 
36 1 2.12465 5.27479 5.27479 
38 1 5.27479 5.27479 5.27479 
4 1 6.84986 3.69972 3.69972 
12 1 3.69972 6.84986 3.69972 
21 1 2.12465 8.42493 2.12465 
22 1 5.27479 8.42493 2.12465 
46 1 2.12465 8.42493 5.27479 
47 1 5.27479 8.42493 5.27479 
14 1 6.84986 6.84986 3.69972 
27 1 3.69972 3.69972 6.84986 
51 1 2.12465 2.12465 8.42493 
52 1 5.27479 2.12465 8.42493 
56 1 2.12465 5.27479 8.42493 
57 1 5.27479 5.27479 8.42493 
29 1 6.84986 3.69972 6.84986 
37 1 3.69972 6.84986 6.84986 
61 1 2.12465 8.42493 8.42493 
62 1 5.27479 8.42493 8.42493 
39 1 6.84986 6.84986 6.84986 
126 1 3.69972 10 3.69972 
127 1 6.84986 10 3.69972 
151 1 3.69972 10 6.84986 
152 1 6.84986 10 6.84986 
66 1 3.69972 3.69972 10 
67 1 6.84986 3.69972 10 
71 1 3.69972 6.84986 10 
72 1 6.84986 6.84986 10 
187 1 6.84986 10 10 
186 1 3.69972 10 10 
5 1 8.42493 2.12465 2.12465 
15 1 8.42493 5.27479 2.12465 
30 1 8.42493 2.12465 5.27479 
40 1 8.42493 5.27479 5.27479 
6 1 10 3.69972 3.69972 
7 1 11.5751 2.12465 2.12465 
17 1 11.5751 5.27479 2.12465 
32 1 11.5751 2.12465 5.27479 
42 1 11.5751 5.27479 5.27479 
23 1 8.42493 8.42493 2.12465 
48 1 8.42493 8.42493 5.27479 
16 1 10 6.84986 3.69972 
24 1 11.5751 8.42493 2.12465 
49 1 11.5751 8.42493 5.27479 
53 1 8.42493 2.12465 8.42493 
58 1 8.42493 5.27479 8.42493 
31 1 10 3.69972 6.84986 
54 1 11.5751 2.12465 8.42493 
59 1 11.5751 5.27479 8.42493 
63 1 8.42493 8.42493 8.42493 
41 1 10 6.84986 6.84986 
64 1 11.5751 8.42493 8.42493 
128 1 10 10 3.69972 
153 1 10 10 6.84986 
68 1 10 3.69972 10 
73 1 10 6.84986 10 
188 1 10 10 10 
8 1 13.1501 3.69972 3.69972 
9 1 14.7252 2.12465 2.12465 
10 1 16.3003 3.69972 3.69972 
19 1 14.7252 5.27479 2.12465 
34 1 14.7252 2.12465 5.27479 
44 1 14.7252 5.27479 5.27479 
18 1 13.1501 6.84986 3.69972 
20 1 16.3003 6.84986 3.69972 
25 1 14.7252 8.42493 2.12465 
50 1 14.7252 8.42493 5.27479 
33 1 13.1501 3.69972 6.84986 
35 1 16.3003 3.69972 6.84986 
55 1 14.7252 2.12465 8.42493 
60 1 14.7252 5.27479 8.42493 
43 1 13.1501 6.84986 6.84986 
45 1 16.3003 6.84986 6.84986 
65 1 14.7252 8.42493 8.42493 
129 1 13.1501 10 3.69972 
130 1 16.3003 10 3.69972 
154 1 13.1501 10 6.84986 
155 1 16.3003 10 6.84986 
69 1 13.1501 3.69972 10 
70 1 16.3003 3.69972 10 
190 1 16.3003 10 10 
74 1 13.1501 6.84986 10 
189 1 13.1501 10 10 
75 1 16.3003 6.84986 10 
76 1 2.12465 2.12465 11.5751 
77 1 3.69972 3.69972 13.1501 
78 1 5.27479 2.12465 11.5751 
86 1 2.12465 5.27479 11.5751 
88 1 5.27479 5.27479 11.5751 
79 1 6.84986 3.69972 13.1501 
227 1 6.84986 10 16.3003 
226 1 3.69972 10 16.3003 
87 1 3.69972 6.84986 13.1501 
96 1 2.12465 8.42493 11.5751 
97 1 5.27479 8.42493 11.5751 
89 1 6.84986 6.84986 13.1501 
202 1 6.84986 10 13.1501 
201 1 3.69972 10 13.1501 
101 1 2.12465 2.12465 14.7252 
102 1 3.69972 3.69972 16.3003 
103 1 5.27479 2.12465 14.7252 
111 1 2.12465 5.27479 14.7252 
113 1 5.27479 5.27479 14.7252 
104 1 6.84986 3.69972 16.3003 
112 1 3.69972 6.84986 16.3003 
121 1 2.12465 8.42493 14.7252 
122 1 5.27479 8.42493 14.7252 
114 1 6.84986 6.84986 16.3003 
80 1 8.42493 2.12465 11.5751 
90 1 8.42493 5.27479 11.5751 
228 1 10 10 16.3003 
81 1 10 3.69972 13.1501 
82 1 11.5751 2.12465 11.5751 
92 1 11.5751 5.27479 11.5751 
98 1 8.42493 8.42493 11.5751 
203 1 10 10 13.1501 
91 1 10 6.84986 13.1501 
99 1 11.5751 8.42493 11.5751 
105 1 8.42493 2.12465 14.7252 
115 1 8.42493 5.27479 14.7252 
106 1 10 3.69972 16.3003 
107 1 11.5751 2.12465 14.7252 
117 1 11.5751 5.27479 14.7252 
123 1 8.42493 8.42493 14.7252 
116 1 10 6.84986 16.3003 
124 1 11.5751 8.42493 14.7252 
229 1 13.1501 10 16.3003 
230 1 16.3003 10 16.3003 
83 1 13.1501 3.69972 13.1501 
84 1 14.7252 2.12465 11.5751 
85 1 16.3003 3.69972 13.1501 
94 1 14.7252 5.27479 11.5751 
205 1 16.3003 10 13.1501 
204 1 13.1501 10 13.1501 
93 1 13.1501 6.84986 13.1501 
95 1 16.3003 6.84986 13.1501 
100 1 14.7252 8.42493 11.5751 
108 1 13.1501 3.69972 16.3003 
109 1 14.7252 2.12465 14.7252 
110 1 16.3003 3.69972 16.3003 
119 1 14.7252 5.27479 14.7252 
118 1 13.1501 6.84986 16.3003 
120 1 16.3003 6.84986 16.3003 
125 1 14.7252 8.42493 14.7252 
131 1 2.12465 11.5751 2.12465 
132 1 3.69972 13.1501 3.69972 
133 1 5.27479 11.5751 2.12465 
156 1 2.12465 11.5751 5.27479 
158 1 5.27479 11.5751 5.27479 
134 1 6.84986 13.1501 3.69972 
141 1 2.12465 14.7252 2.12465 
142 1 3.69972 16.3003 3.69972 
143 1 5.27479 14.7252 2.12465 
166 1 2.12465 14.7252 5.27479 
168 1 5.27479 14.7252 5.27479 
144 1 6.84986 16.3003 3.69972 
157 1 3.69972 13.1501 6.84986 
176 1 2.12465 11.5751 8.42493 
177 1 5.27479 11.5751 8.42493 
169 1 6.84986 16.3003 6.84986 
159 1 6.84986 13.1501 6.84986 
182 1 5.27479 14.7252 8.42493 
181 1 2.12465 14.7252 8.42493 
167 1 3.69972 16.3003 6.84986 
191 1 3.69972 13.1501 10 
192 1 6.84986 13.1501 10 
196 1 3.69972 16.3003 10 
197 1 6.84986 16.3003 10 
135 1 8.42493 11.5751 2.12465 
160 1 8.42493 11.5751 5.27479 
184 1 11.5751 14.7252 8.42493 
136 1 10 13.1501 3.69972 
137 1 11.5751 11.5751 2.12465 
162 1 11.5751 11.5751 5.27479 
171 1 10 16.3003 6.84986 
145 1 8.42493 14.7252 2.12465 
170 1 8.42493 14.7252 5.27479 
146 1 10 16.3003 3.69972 
147 1 11.5751 14.7252 2.12465 
172 1 11.5751 14.7252 5.27479 
183 1 8.42493 14.7252 8.42493 
178 1 8.42493 11.5751 8.42493 
161 1 10 13.1501 6.84986 
179 1 11.5751 11.5751 8.42493 
193 1 10 13.1501 10 
198 1 10 16.3003 10 
185 1 14.7252 14.7252 8.42493 
175 1 16.3003 16.3003 6.84986 
173 1 13.1501 16.3003 6.84986 
138 1 13.1501 13.1501 3.69972 
139 1 14.7252 11.5751 2.12465 
140 1 16.3003 13.1501 3.69972 
164 1 14.7252 11.5751 5.27479 
148 1 13.1501 16.3003 3.69972 
149 1 14.7252 14.7252 2.12465 
150 1 16.3003 16.3003 3.69972 
174 1 14.7252 14.7252 5.27479 
163 1 13.1501 13.1501 6.84986 
165 1 16.3003 13.1501 6.84986 
180 1 14.7252 11.5751 8.42493 
194 1 13.1501 13.1501 10 
195 1 16.3003 13.1501 10 
199 1 13.1501 16.3003 10 
200 1 16.3003 16.3003 10 
206 1 2.12465 11.5751 11.5751 
207 1 3.69972 13.1501 13.1501 
208 1 5.27479 11.5751 11.5751 
209 1 6.84986 13.1501 13.1501 
244 1 6.84986 16.3003 16.3003 
243 1 5.27479 14.7252 14.7252 
242 1 3.69972 16.3003 16.3003 
234 1 6.84986 13.1501 16.3003 
241 1 2.12465 14.7252 14.7252 
216 1 2.12465 14.7252 11.5751 
217 1 3.69972 16.3003 13.1501 
218 1 5.27479 14.7252 11.5751 
233 1 5.27479 11.5751 14.7252 
219 1 6.84986 16.3003 13.1501 
232 1 3.69972 13.1501 16.3003 
231 1 2.12465 11.5751 14.7252 
236 1 10 13.1501 16.3003 
237 1 11.5751 11.5751 14.7252 
247 1 11.5751 14.7252 14.7252 
210 1 8.42493 11.5751 11.5751 
246 1 10 16.3003 16.3003 
245 1 8.42493 14.7252 14.7252 
235 1 8.42493 11.5751 14.7252 
211 1 10 13.1501 13.1501 
212 1 11.5751 11.5751 11.5751 
220 1 8.42493 14.7252 11.5751 
221 1 10 16.3003 13.1501 
222 1 11.5751 14.7252 11.5751 
250 1 16.3003 16.3003 16.3003 
249 1 14.7252 14.7252 14.7252 
248 1 13.1501 16.3003 16.3003 
238 1 13.1501 13.1501 16.3003 
213 1 13.1501 13.1501 13.1501 
214 1 14.7252 11.5751 11.5751 
215 1 16.3003 13.1501 13.1501 
239 1 14.7252 11.5751 14.7252 
223 1 13.1501 16.3003 13.1501 
240 1 16.3003 13.1501 16.3003 
224 1 14.7252 14.7252 11.5751 
225 1 16.3003 16.3003 13.1501 
ITEM: TIMESTEP
50
ITEM: NUMBER OF ATOMS
250
ITEM: BOX BOUNDS pp pp pp
2.1150889137306548e+00 1.7884911086269035e+01
2.1150889137306548e+00 1.7884911086269035e+01
2.1150889137306548e+00 1.7884911086269035e+01
ITEM: ATOMS id type x y z 
1 1 2.05533 2.15327 2.16295 
2 1 3.65574 3.6402 3.64714 
3 1 5.29742 2.1384 2.17357 
11 1 2.17998 5.27439 2.17902 
13 1 5.33727 5.32639 2.09705 
26 1 2.10255 2.11603 5.24817 
28 1 5.30492 2.16135 5.33905 
36 1 2.07755 5.28814 5.21156 
38 1 5.27788 5.25098 5.20627 
4 1 6.85118 3.68148 3.67845 
12 1 3.77294 6.8949 3.658 
21 1 2.15864 8.40178 2.10097 
22 1 5.30341 8.41578 2.05271 
46 1 2.12871 8.38147 5.24653 
47 1 5.31832 8.43523 5.29853 
14 1 6.80825 6.90054 3.70528 
27 1 3.73643 3.66933 6.80828 
51 1 2.10504 2.13736 8.46872 
52 1 5.20171 2.05755 8.41765 
56 1 2.10634 5.21769 8.36373 
57 1 5.30104 5.24196 8.39232 
29 1 6.86411 3.73951 6.87116 
37 1 3.75412 6.85748 6.88548 
61 1 2.18951 8.46418 8.39145 
62 1 5.2995 8.44009 8.40092 
39 1 6.89148 6.90619 6.82332 
126 1 3.68263 9.95015 3.63618 
127 1 6.89766 10.0325 3.66824 
151 1 3.75326 10.014 6.78428 
152 1 6.84622 9.9999 6.86787 
66 1 3.68257 3.70239 9.94526 
67 1 6.85179 3.71013 9.98711 
71 1 3.71305 6.78932 9.9595 
72 1 6.87749 6.79446 9.98568 
187 1 6.90731 9.9512 10.0399 
186 1 3.7542 9.95126 10.0453 
5 1 8.40486 2.12714 2.1558 
15 1 8.40906 5.25393 2.19246 
30 1 8.37856 2.07316 5.27735 
40 1 8.40623 5.2042 5.21865 
6 1 9.97232 3.67286 3.62326 
7 1 11.555 2.08134 2.1573 
17 1 11.5683 5.26333 2.09992 
32 1 11.5448 2.09649 5.28144 
42 1 11.5482 5.29778 5.30317 
23 1 8.42054 8.33737 2.07725 
48 1 8.43489 8.4339 5.30776 
16 1 9.96598 6.85493 3.71435 
24 1 11.5677 8.36207 2.09524 
49 1 11.635 8.40214 5.27906 
53 1 8.39581 2.15395 8.36076 
58 1 8.42116 5.33617 8.36756 
31 1 10.0319 3.70026 6.79737 
54 1 11.6313 2.11538 8.43267 
59 1 11.5602 5.2296 8.48698 
63 1 8.44203 8.44725 8.48677 
41 1 9.96748 6.88231 6.78598 
64 1 11.5567 8.44192 8.37274 
128 1 9.95473 10.0125 3.68617 
153 1 9.95148 10.0271 6.78157 
68 1 10.0199 3.65845 9.95275 
73 1 10.0731 6.81743 9.99142 
188 1 10.0009 9.99404 9.96257 
8 1 13.1006 3.74555 3.6548 
9 1 14.7502 2.18627 2.07475 
10 1 16.2747 3.69589 3.68044 
19 1 14.682 5.28386 2.04909 
34 1 14.6508 2.07783 5.23575 
44 1 14.6592 5.30307 5.30731 
18 1 13.1613 6.83165 3.71792 
20 1 16.3154 6.78913 3.70133 
25 1 14.7546 8.35207 2.15247 
50 1 14.7767 8.43443 5.31317 
33 1 13.112 3.69928 6.86742 
35 1 16.3158 3.66625 6.83118 
55 1 14.6856 2.05282 8.38592 
60 1 14.7748 5.20988 8.45501 
43 1 13.1489 6.8584 6.85937 
45 1 16.3678 6.8169 6.90707 
65 1 14.7952 8.45519 8.476 
129 1 13.1109 9.96994 3.69436 
130 1 16.3083 9.94577 3.6381 
154 1 13.158 9.94533 6.89677 
155 1 16.3035 10.0155 6.76715 
69 1 13.2391 3.6976 10.0219 
70 1 16.3402 3.75073 9.97426 
190 1 16.3028 10.0301 10.0232 
74 1 13.2001 6.78793 10.035 
189 1 13.2032 9.97061 10.0586 
75 1 16.3634 6.8884 9.96954 
76 1 2.04182 2.12308 11.6475 
77 1 3.68536 3.72965 13.1399 
78 1 5.22554 2.05511 11.5527 
86 1 2.15065 5.27249 11.5865 
88 1 5.25078 5.20774 11.5055 
79 1 6.84218 3.71733 13.1871 
227 1 6.82805 10.0041 16.2913 
226 1 3.62415 10.0863 16.2511 
87 1 3.7703 6.85161 13.1644 
96 1 2.12487 8.42541 11.5206 
97 1 5.27416 8.40767 11.5109 
89 1 6.86193 6.76397 13.0803 
202 1 6.82159 9.91946 13.2003 
201 1 3.73416 9.98309 13.1863 
101 1 2.05265 2.08018 14.6985 
102 1 3.72673 3.73643 16.3719 
103 1 5.22316 2.08968 14.735 
111 1 2.12664 5.24794 14.7895 
113 1 5.31626 5.20413 14.7248 
104 1 6.8818 3.74597 16.3834 
112 1 3.69682 6.90409 16.3273 
121 1 2.16519 8.43278 14.6563 
122 1 5.29815 8.34626 14.7703 
114 1 6.89374 6.80104 16.249 
80 1 8.35621 2.15991 11.5626 
90 1 8.41275 5.27505 11.5066 
228 1 9.97915 9.95621 16.3613 
81 1 9.92175 3.67111 13.1615 
82 1 11.5076 2.18095 11.5461 
92 1 11.55 5.31373 11.5804 
98 1 8.39911 8.35672 11.6246 
203 1 9.96768 9.96009 13.1331 
91 1 9.98709 6.83449 13.1934 
99 1 11.603 8.46411 11.5717 
105 1 8.34121 2.16227 14.7736 
115 1 8.44194 5.30781 14.7778 
106 1 9.98393 3.74848 16.2473 
107 1 11.5467 2.10981 14.7595 
117 1 11.6034 5.22529 14.6513 
123 1 8.41789 8.43544 14.7918 
116 1 10.0873 6.80805 16.2763 
124 1 11.6276 8.47488 14.6916 
229 1 13.1091 10.0361 16.3746 
230 1 16.2604 10.0096 16.2638 
83 1 13.0676 3.65551 13.1108 
84 1 14.7866 2.09481 11.6148 
85 1 16.2412 3.7727 13.1203 
94 1 14.6982 5.26653 11.6094 
205 1 16.2881 9.9979 13.1306 
204 1 13.1649 10.046 13.1236 
93 1 13.1257 6.89187 13.1329 
95 1 16.2671 6.79917 13.1919 
100 1 14.7687 8.36703 11.5828 
108 1 13.0908 3.73039 16.2441 
109 1 14.7483 2.18874 14.6787 
110 1 16.2925 3.75275 16.3342 
119 1 14.684 5.29369 14.7076 
118 1 13.1457 6.88273 16.3092 
120 1 16.3091 6.85567 16.2528 
125 1 14.6778 8.44791 14.7311 
131 1 2.0268 11.6115 2.13895 
132 1 3.66795 13.1036 3.71177 
133 1 5.21397 11.6369 2.08241 
156 1 2.06196 11.5356 5.25803 
158 1 5.24647 11.5072 5.24679 
134 1 6.79787 13.1311 3.71137 
141 1 2.16006 14.7343 2.13989 
142 1 3.67557 16.3556 3.70054 
143 1 5.33419 14.7983 2.16112 
166 1 2.19915 14.7157 5.2628 
168 1 5.29756 14.6926 5.32697 
144 1 6.85568 16.3607 3.69418 
157 1 3.63099 13.0861 6.83964 
176 1 2.09865 11.5112 8.38605 
177 1 5.19889 11.6192 8.50608 
169 1 6.84143 16.2988 6.91301 
159 1 6.76599 13.1818 6.88907 
182 1 5.29796 14.7769 8.4855 
181 1 2.09427 14.7411 8.37067 
167 1 3.66485 16.3074 6.79307 
191 1 3.65091 13.1442 10.0359 
192 1 6.8952 13.0708 10.057 
196 1 3.71748 16.3305 10.0616 
197 1 6.92385 16.2491 10.0266 
135 1 8.34748 11.5807 2.15219 
160 1 8.37131 11.5595 5.36778 
184 1 11.6253 14.7868 8.48966 
136 1 9.96534 13.16 3.67393 
137 1 11.5913 11.5264 2.10403 
162 1 11.6366 11.5741 5.30304 
171 1 9.98367 16.2903 6.80657 
145 1 8.42301 14.6958 2.14485 
170 1 8.3802 14.6663 5.24306 
146 1 9.98317 16.3209 3.67176 
147 1 11.6141 14.743 2.15212 
172 1 11.6307 14.7277 5.28299 
183 1 8.46997 14.7161 8.4158 
178 1 8.42862 11.6177 8.48798 
161 1 9.98009 13.2241 6.88211 
179 1 11.5275 11.572 8.39927 
193 1 10.0561 13.1669 10.0409 
198 1 10.0481 16.3331 10.0158 
185 1 14.8009 14.7435 8.3593 
175 1 16.339 16.3643 6.78635 
173 1 13.1266 16.2833 6.82344 
138 1 13.131 13.1221 3.67895 
139 1 14.7256 11.5477 2.21114 
140 1 16.3146 13.2085 3.71297 
164 1 14.7478 11.6477 5.26212 
148 1 13.1567 16.2994 3.63268 
149 1 14.733 14.7047 2.0522 
150 1 16.2741 16.2499 3.66341 
174 1 14.7817 14.7875 5.22735 
163 1 13.1713 13.112 6.92475 
165 1 16.332 13.1358 6.80397 
180 1 14.788 11.5884 8.39354 
194 1 13.2347 13.092 10.0156 
195 1 16.3766 13.1303 9.93708 
199 1 13.246 16.3702 10.0717 
200 1 16.3708 16.3474 9.94174 
206 1 2.17503 11.6205 11.5893 
207 1 3.70265 13.2171 13.1644 
208 1 5.21695 11.582 11.6469 
209 1 6.90977 13.1624 13.2267 
244 1 6.84887 16.3464 16.268 
243 1 5.19741 14.7031 14.8131 
242 1 3.63325 16.3848 16.3234 
234 1 6.80374 13.186 16.2569 
241 1 2.12848 14.7579 14.7908 
216 1 2.04942 14.7105 11.5449 
217 1 3.68175 16.2566 13.1364 
218 1 5.29882 14.6452 11.6366 
233 1 5.2807 11.5942 14.7575 
219 1 6.78887 16.3455 13.1173 
232 1 3.6544 13.1392 16.3166 
231 1 2.06544 11.6188 14.6591 
236 1 9.9349 13.1988 16.3254 
237 1 11.5834 11.6319 14.6972 
247 1 11.6047 14.7724 14.6748 
210 1 8.36694 11.5645 11.6369 
246 1 10.0395 16.3489 16.2489 
245 1 8.3844 14.8105 14.6867 
235 1 8.41593 11.5272 14.7989 
211 1 9.93311 13.1335 13.2358 
212 1 11.5294 11.5907 11.5763 
220 1 8.44321 14.7281 11.5212 
221 1 9.94838 16.2546 13.1217 
222 1 11.5892 14.7231 11.5238 
250 1 16.3145 16.3572 16.3805 
249 1 14.8044 14.7723 14.7624 
248 1 13.1747 16.2624 16.2821 
238 1 13.1869 13.1267 16.348 
213 1 13.1964 13.1668 13.205 
214 1 14.7982 11.5641 11.6333 
215 1 16.2914 13.1665 13.1601 
239 1 14.6809 11.5251 14.7826 
223 1 13.1271 16.3521 13.1333 
240 1 16.2873 13.0942 16.2706 
224 1 14.6824 14.6793 11.5469 
225 1 16.2982 16.2663 13.1479 
ITEM: TIMESTEP
100
ITEM: NUMBER OF ATOMS
250
ITEM: BOX BOUNDS pp pp pp
2.1228900120322542e+00 1.7877109987967422e+01
2.1228900120322542e+00 1.7877109987967422e+01
2.1228900120322542e+00 1.7877109987967422e+01
ITEM: ATOMS id type x y z 
1 1 2.1149 2.1471 2.09198 
2 1 3.73897 3.75237 3.74499 
3 1 5.24616 2.16028 2.11329 
11 1 2.1125 5.32794 2.09641 
13 1 5.27666 5.29888 2.12254 
26 1 2.09078 2.14919 5.26505 
28 1 5.27123 2.07466 5.27217 
36 1 2.16413 5.24537 5.29365 
38 1 5.26337 5.30101 5.26425 
4 1 6.8037 3.72631 3.75694 
12 1 3.7056 6.82607 3.72541 
21 1 2.095 8.4393 2.05111 
22 1 5.30478 8.50989 2.09887 
46 1 2.17811 8.39294 5.25341 
47 1 5.28487 8.42727 5.21183 
14 1 6.90673 6.86868 3.68706 
27 1 3.66291 3.7178 6.80503 
51 1 2.12629 2.10428 8.37971 
52 1 5.30321 2.12569 8.45655 
56 1 2.20617 5.29816 8.38642 
57 1 5.28943 5.26652 8.34897 
29 1 6.86288 3.70411 6.82682 
37 1 3.74592 6.81713 6.77319 
61 1 2.1737 8.41665 8.38722 
62 1 5.33381 8.43179 8.4455 
39 1 6.86039 6.84054 6.83795 
126 1 3.72189 10.0087 3.63415 
127 1 6.79978 9.97458 3.70262 
151 1 3.68696 9.96286 6.84825 
152 1 6.85274 10.0687 6.93089 
66 1 3.69694 3.65558 9.99715 
67 1 6.83735 3.62087 9.95674 
71 1 3.73739 6.83312 9.96907 
72 1 6.85895 6.84644 9.93355 
187 1 6.84325 9.98901 10.0555 
186 1 3.71001 10.0096 9.97894 
5 1 8.449 2.08121 2.07791 
15 1 8.46841 5.31452 2.09681 
30 1 8.43607 2.10335 5.28337 
40 1 8.41502 5.29369 5.27819 
6 1 10.0155 3.69138 3.71451 
7 1 11.5837 2.14337 2.05855 
17 1 11.5455 5.26295 2.11427 
32 1 11.5509 2.12338 5.24254 
42 1 11.5414 5.2589 5.26033 
23 1 8.43345 8.42385 2.14395 
48 1 8.43722 8.4367 5.23276 
16 1 10.0162 6.84988 3.68578 
24 1 11.5726 8.41256 2.1633 
49 1 11.5548 8.45201 5.2556 
53 1 8.45194 2.12249 8.43817 
58 1 8.4929 5.27192 8.38092 
31 1 9.97146 3.69125 6.82677 
54 1 11.559 2.10939 8.40968 
59 1 11.6192 5.2943 8.3907 
63 1 8.46318 8.43996 8.42405 
41 1 10.0392 6.854 6.87569 
64 1 11.6122 8.40273 8.46097 
128 1 10.0023 9.99818 3.71096 
153 1 10.0363 10.0348 6.88262 
68 1 9.97249 3.71814 9.95839 
73 1 10.0065 6.88693 9.98622 
188 1 10.0378 10.0053 10.041 
8 1 13.1138 3.68676 3.6999 
9 1 14.6205 2.13442 2.08569 
10 1 16.2009 3.70966 3.72334 
19 1 14.7292 5.29221 2.13348 
34 1 14.6804 2.18342 5.22128 
44 1 14.7304 5.24776 5.28394 
18 1 13.1332 6.84778 3.70554 
20 1 16.2973 6.83771 3.68164 
25 1 14.719 8.42106 2.12046 
50 1 14.748 8.40681 5.29046 
33 1 13.1668 3.69576 6.82936 
35 1 16.2615 3.68664 6.79342 
55 1 14.7836 2.14014 8.39486 
60 1 14.7241 5.29129 8.40658 
43 1 13.1912 6.82579 6.95056 
45 1 16.3104 6.85738 6.82761 
65 1 14.7686 8.39304 8.42259 
129 1 13.1641 9.95146 3.76165 
130 1 16.2895 9.95423 3.68547 
154 1 13.1828 10.0262 6.87498 
155 1 16.3359 9.94765 6.85616 
69 1 13.1537 3.6688 10.0085 
70 1 16.319 3.6913 10.0245 
190 1 16.3873 10.0023 9.98282 
74 1 13.196 6.88487 9.95618 
189 1 13.1657 10.0013 9.9835 
75 1 16.3637 6.82177 10.0186 
76 1 2.14108 2.14732 11.5738 
77 1 3.66676 3.65211 13.1685 
78 1 5.23845 2.13352 11.5842 
86 1 2.10793 5.3079 11.5764 
88 1 5.28789 5.22758 11.5572 
79 1 6.79565 3.66727 13.1256 
227 1 6.79974 10.01 16.3409 
226 1 3.65183 10.0068 16.289 
87 1 3.70064 6.80578 13.1147 
96 1 2.18059 8.41416 11.5833 
97 1 5.30524 8.33518 11.604 
89 1 6.84323 6.80247 13.1498 
202 1 6.83989 9.95444 13.1739 
201 1 3.70139 9.99256 13.1439 
101 1 2.09534 2.20234 14.7623 
102 1 3.69361 3.71637 16.2919 
103 1 5.19728 2.13973 14.7446 
111 1 2.15886 5.28385 14.7197 
113 1 5.25281 5.25973 14.7269 
104 1 6.83467 3.67215 16.2981 
112 1 3.72214 6.84406 16.2501 
121 1 2.09136 8.41261 14.6988 
122 1 5.29888 8.40772 14.6834 
114 1 6.8783 6.859 16.3053 
80 1 8.38982 2.11089 11.5536 
90 1 8.4671 5.22682 11.5534 
228 1 9.99512 10.0224 16.3057 
81 1 9.93581 3.68475 13.1049 
82 1 11.5629 2.11235 11.5917 
92 1 11.546 5.26105 11.5679 
98 1 8.47867 8.4022 11.586 
203 1 9.9887 10.0009 13.1849 
91 1 10.0028 6.84884 13.1236 
99 1 11.5615 8.42674 11.5369 
105 1 8.39647 2.15123 14.7057 
115 1 8.44099 5.27019 14.6797 
106 1 9.99262 3.67309 16.3216 
107 1 11.5328 2.12604 14.6696 
117 1 11.5495 5.32823 14.6918 
123 1 8.47081 8.37904 14.7148 
116 1 10.0231 6.85386 16.2933 
124 1 11.5371 8.47013 14.7274 
229 1 13.1434 9.9586 16.3087 
230 1 16.2893 9.94829 16.2946 
83 1 13.1135 3.71607 13.1057 
84 1 14.7242 2.13443 11.542 
85 1 16.3114 3.70943 13.183 
94 1 14.743 5.27777 11.5693 
205 1 16.3472 9.96402 13.1557 
204 1 13.1307 10.0365 13.1655 
93 1 13.1297 6.86265 13.1467 
95 1 16.3726 6.89543 13.1238 
100 1 14.7617 8.42537 11.602 
108 1 13.1294 3.67393 16.2829 
109 1 14.6871 2.14413 14.7387 
110 1 16.3062 3.75702 16.267 
119 1 14.6806 5.30253 14.7154 
118 1 13.152 6.86453 16.2643 
120 1 16.3206 6.88413 16.3115 
125 1 14.741 8.43201 14.7266 
131 1 2.09091 11.5462 2.08555 
132 1 3.70205 13.1515 3.70342 
133 1 5.2288 11.5779 2.12147 
156 1 2.13993 11.5147 5.19447 
158 1 5.25677 11.5866 5.27889 
134 1 6.80354 13.1542 3.71774 
141 1 2.13992 14.7484 2.13014 
142 1 3.72981 16.2837 3.7137 
143 1 5.23336 14.7543 2.16299 
166 1 2.12329 14.7218 5.24101 
168 1 5.24608 14.7434 5.29639 
144 1 6.82556 16.2551 3.75866 
157 1 3.71812 13.1427 6.87953 
176 1 2.16229 11.546 8.42626 
177 1 5.29375 11.5539 8.4703 
169 1 6.84529 16.2952 6.85488 
159 1 6.81694 13.101 6.94412 
182 1 5.2363 14.6769 8.50261 
181 1 2.19701 14.7279 8.40063 
167 1 3.72441 16.2834 6.89473 
191 1 3.7269 13.177 9.98738 
192 1 6.82398 13.1442 10.0628 
196 1 3.67197 16.2357 9.99826 
197 1 6.8499 16.3045 9.99896 
135 1 8.40808 11.5741 2.1306 
160 1 8.41297 11.6405 5.29448 
184 1 11.6648 14.714 8.43709 
136 1 10.003 13.1056 3.75903 
137 1 11.4702 11.6091 2.15681 
162 1 11.5349 11.575 5.28296 
171 1 10.0016 16.3079 6.86198 
145 1 8.40011 14.7864 2.08542 
170 1 8.42369 14.7243 5.302 
146 1 9.99261 16.2396 3.69833 
147 1 11.5335 14.6817 2.06943 
172 1 11.5667 14.6897 5.28283 
183 1 8.44417 14.7514 8.45201 
178 1 8.40317 11.5806 8.47039 
161 1 10.028 13.1403 6.84839 
179 1 11.6163 11.5863 8.4626 
193 1 10.0251 13.1375 10.0291 
198 1 10.0162 16.3295 9.95161 
185 1 14.7526 14.7275 8.41186 
175 1 16.2986 16.292 6.79025 
173 1 13.1693 16.2812 6.84222 
138 1 13.1447 13.1634 3.74399 
139 1 14.7016 11.5351 2.13772 
140 1 16.2897 13.1289 3.65687 
164 1 14.6966 11.5446 5.2772 
148 1 13.15 16.3094 3.66582 
149 1 14.7652 14.7206 2.1368 
150 1 16.3164 16.3699 3.6719 
174 1 14.7052 14.7002 5.2657 
163 1 13.1616 13.167 6.84952 
165 1 16.317 13.1998 6.81093 
180 1 14.7325 11.5376 8.44006 
194 1 13.1963 13.1194 10.0148 
195 1 16.3076 13.1644 9.97937 
199 1 13.182 16.273 9.98656 
200 1 16.3072 16.2936 9.99664 
206 1 2.12124 11.524 11.5733 
207 1 3.66899 13.1355 13.2127 
208 1 5.32819 11.529 11.6406 
209 1 6.81214 13.1339 13.1958 
244 1 6.81272 16.3379 16.3415 
243 1 5.25832 14.797 14.7688 
242 1 3.70609 16.3508 16.3639 
234 1 6.84596 13.1907 16.3792 
241 1 2.07531 14.7437 14.742 
216 1 2.11818 14.7536 11.5829 
217 1 3.64044 16.3202 13.1788 
218 1 5.28657 14.7073 11.5984 
233 1 5.23473 11.5507 14.7175 
219 1 6.81619 16.2875 13.1665 
232 1 3.637 13.2127 16.3422 
231 1 2.10862 11.5767 14.7131 
236 1 10.0115 13.1626 16.3141 
237 1 11.5165 11.5764 14.7738 
247 1 11.571 14.7155 14.7383 
210 1 8.43691 11.5081 11.665 
246 1 9.95715 16.2971 16.3136 
245 1 8.39479 14.7606 14.7652 
235 1 8.42776 11.5816 14.7792 
211 1 10.0211 13.1539 13.1576 
212 1 11.5947 11.5932 11.5985 
220 1 8.44844 14.6962 11.6071 
221 1 9.96356 16.3623 13.1091 
222 1 11.6118 14.7396 11.6251 
250 1 16.2795 16.3198 16.2785 
249 1 14.7108 14.742 14.697 
248 1 13.1614 16.3606 16.2604 
238 1 13.0907 13.1576 16.3022 
213 1 13.139 13.1888 13.1578 
214 1 14.7386 11.5755 11.565 
215 1 16.3039 13.1566 13.1329 
239 1 14.7043 11.61 14.7502 
223 1 13.1364 16.3048 13.1464 
240 1 16.2824 13.1778 16.3348 
224 1 14.7823 14.7347 11.5529 
225 1 16.2641 16.3044 13.1499 
ITEM: TIMESTEP
150
ITEM: NUMBER OF ATOMS
250
ITEM: BOX BOUNDS pp pp pp
2.1190608082012110e+00 1.7880939191798465e+01
2.1190608082012110e+00 1.7880939191798465e+01
2.1190608082012110e+00 1.7880939191798465e+01
ITEM: ATOMS id type x y z 
1 1 2.11971 2.17729 2.11729 
2 1 3.66713 3.72161 3.68994 
3 1 5.25107 2.1456 2.13645 
11 1 2.07299 5.26426 2.07186 
13 1 5.23755 5.27474 2.11783 
26 1 2.1417 2.10326 5.23899 
28 1 5.22304 2.10799 5.24243 
36 1 2.09519 5.26514 5.26497 
38 1 5.33062 5.28096 5.30289 
4 1 6.89853 3.68018 3.66043 
12 1 3.6392 6.84697 3.6072 
21 1 2.11884 8.42453 2.14423 
22 1 5.19762 8.36293 2.13713 
46 1 2.11423 8.44057 5.22442 
47 1 5.27117 8.44182 5.26634 
14 1 6.87626 6.79171 3.65315 
27 1 3.70167 3.64772 6.89862 
51 1 2.1428 2.1091 8.36363 
52 1 5.30433 2.12935 8.39102 
56 1 2.12071 5.28134 8.46955 
57 1 5.29961 5.26515 8.45034 
29 1 6.81953 3.61574 6.80572 
37 1 3.67908 6.87666 6.81346 
61 1 2.12361 8.32638 8.44401 
62 1 5.27349 8.38766 8.40276 
39 1 6.86994 6.85615 6.83262 
126 1 3.66363 10.0208 3.7325 
127 1 6.83721 10.0441 3.76536 
151 1 3.70678 9.97948 6.8615 
152 1 6.87733 9.95732 6.81047 
66 1 3.70425 3.68095 10.0045 
67 1 6.84945 3.72179 9.98469 
71 1 3.74669 6.87033 9.98978 
72 1 6.88425 6.82157 10.0125 
187 1 6.85191 10.0039 10.0302 
186 1 3.71126 10.0053 9.98569 
5 1 8.39029 2.16455 2.14972 
15 1 8.412 5.23341 2.02861 
30 1 8.44605 2.14246 5.23257 
40 1 8.47131 5.348 5.28668 
6 1 9.9562 3.68191 3.72438 
7 1 11.5303 2.09825 2.06875 
17 1 11.6133 5.28564 2.09971 
32 1 11.5939 2.08588 5.23798 
42 1 11.6255 5.26833 5.25122 
23 1 8.44333 8.55001 2.12002 
48 1 8.42208 8.47606 5.29858 
16 1 10.0491 6.83204 3.69507 
24 1 11.5842 8.50745 2.12552 
49 1 11.5495 8.41279 5.35149 
53 1 8.44167 2.06911 8.44057 
58 1 8.42198 5.22046 8.45909 
31 1 10.0038 3.68111 6.87185 
54 1 11.5943 2.13081 8.38497 
59 1 11.6133 5.26148 8.37895 
63 1 8.44698 8.42585 8.35143 
41 1 10.0641 6.85253 6.87016 
64 1 11.6367 8.45457 8.44498 
128 1 10.0023 9.9932 3.7407 
153 1 10.0568 9.98432 6.96155 
68 1 10.0211 3.7163 10.0123 
73 1 9.96771 6.85088 9.98273 
188 1 10.0161 10.0402 10.0589 
8 1 13.1405 3.67835 3.68589 
9 1 14.7413 2.08684 2.12839 
10 1 16.3717 3.72683 3.61626 
19 1 14.7124 5.2697 2.14574 
34 1 14.7656 2.08346 5.28319 
44 1 14.7554 5.29449 5.22437 
18 1 13.1514 6.82981 3.70284 
20 1 16.3058 6.89633 3.69229 
25 1 14.6716 8.45794 2.09697 
50 1 14.6814 8.37046 5.24046 
33 1 13.1457 3.66402 6.83041 
35 1 16.3229 3.74069 6.88859 
55 1 14.7623 2.1657 8.42593 
60 1 14.7909 5.27925 8.42492 
43 1 13.169 6.87042 6.74811 
45 1 16.3228 6.83233 6.77968 
65 1 14.7607 8.40877 8.40861 
129 1 13.1662 10.0494 3.68665 
130 1 16.3142 10.0155 3.74672 
154 1 13.1632 10.0108 6.82703 
155 1 16.3517 10.012 6.89236 
69 1 13.0742 3.69496 9.9234 
70 1 16.3051 3.6511 9.9793 
190 1 16.3286 9.92309 9.9798 
74 1 13.1533 6.86738 10.0435 
189 1 13.1872 10.013 9.99404 
75 1 16.3021 6.82255 9.9793 
76 1 2.13731 2.09715 11.5006 
77 1 3.67374 3.68994 13.1374 
78 1 5.28046 2.09365 11.6018 
86 1 2.14182 5.21512 11.5328 
88 1 5.30001 5.27798 11.5778 
79 1 6.82259 3.64272 13.1075 
227 1 6.88358 10.0243 16.2885 
226 1 3.74772 9.92454 16.2928 
87 1 3.67363 6.80707 13.1179 
96 1 2.17487 8.41249 11.5634 
97 1 5.31862 8.40157 11.6106 
89 1 6.87272 6.85462 13.1842 
202 1 6.90622 10.0251 13.1814 
201 1 3.67587 9.97096 13.1167 
101 1 2.1145 2.12934 14.7667 
102 1 3.64995 3.72093 16.3017 
103 1 5.29768 2.15084 14.7288 
111 1 2.06923 5.3369 14.6558 
113 1 5.26718 5.32141 14.7118 
104 1 6.8168 3.69739 16.252 
112 1 3.71924 6.84058 16.2875 
121 1 2.14112 8.41383 14.7808 
122 1 5.23789 8.46843 14.7022 
114 1 6.81237 6.88954 16.3392 
80 1 8.45432 2.03558 11.559 
90 1 8.3743 5.26422 11.5686 
228 1 9.97184 10.0192 16.3143 
81 1 10.0619 3.72912 13.1217 
82 1 11.624 2.06072 11.5212 
92 1 11.633 5.24596 11.5024 
98 1 8.4277 8.43816 11.5252 
203 1 10.045 10.0428 13.2002 
91 1 10.0204 6.8499 13.0832 
99 1 11.6226 8.3992 11.6229 
105 1 8.43052 2.07127 14.6738 
115 1 8.37959 5.20039 14.6749 
106 1 9.98555 3.66361 16.2945 
107 1 11.5572 2.16217 14.6715 
117 1 11.5158 5.28854 14.7835 
123 1 8.40027 8.42346 14.6959 
116 1 9.92688 6.89895 16.324 
124 1 11.5538 8.37602 14.7619 
229 1 13.1491 9.99856 16.2789 
230 1 16.2918 10.0446 16.3218 
83 1 13.2197 3.75336 13.1848 
84 1 14.6813 2.15144 11.5431 
85 1 16.3165 3.65639 13.1588 
94 1 14.7483 5.29749 11.5385 
205 1 16.2946 10.0483 13.1598 
204 1 13.1641 9.96973 13.1941 
93 1 13.2004 6.85471 13.1194 
95 1 16.304 6.8586 13.124 
100 1 14.725 8.49994 11.5487 
108 1 13.1694 3.7539 16.3 
109 1 14.6791 2.10679 14.7095 
110 1 16.2489 3.68116 16.3164 
119 1 14.7846 5.2837 14.7182 
118 1 13.1446 6.80988 16.3158 
120 1 16.2742 6.82215 16.3025 
125 1 14.7418 8.41887 14.6963 
131 1 2.15819 11.5606 2.06764 
132 1 3.66805 13.1884 3.69457 
133 1 5.29148 11.5813 2.13761 
156 1 2.14928 11.6079 5.2861 
158 1 5.28751 11.6276 5.3274 
134 1 6.88542 13.1761 3.74254 
141 1 2.02014 14.7693 2.11576 
142 1 3.65966 16.3275 3.7284 
143 1 5.20589 14.6901 2.11028 
166 1 2.02519 14.7341 5.25305 
168 1 5.2446 14.7098 5.30372 
144 1 6.85256 16.2901 3.69934 
157 1 3.73501 13.1607 6.83535 
176 1 2.15055 11.6585 8.40034 
177 1 5.32587 11.5097 8.41139 
169 1 6.85924 16.2789 6.8528 
159 1 6.94508 13.1812 6.85172 
182 1 5.32949 14.6947 8.37877 
181 1 2.08972 14.6913 8.454 
167 1 3.72476 16.3148 6.88639 
191 1 3.70848 13.0772 10.0844 
192 1 6.85759 13.2047 10.052 
196 1 3.68255 16.3153 9.98871 
197 1 6.76042 16.2995 10.0092 
135 1 8.42647 11.6061 2.14543 
160 1 8.41979 11.5634 5.23305 
184 1 11.5267 14.6617 8.38877 
136 1 9.96162 13.1896 3.7041 
137 1 11.5989 11.5786 2.17211 
162 1 11.5504 11.5567 5.29146 
171 1 10.0491 16.2818 6.87303 
145 1 8.38687 14.7187 2.17501 
170 1 8.43433 14.768 5.34368 
146 1 10.0158 16.2826 3.70798 
147 1 11.5543 14.762 2.12816 
172 1 11.526 14.7486 5.25877 
183 1 8.39978 14.7028 8.47875 
178 1 8.48385 11.5551 8.46944 
161 1 10.0094 13.1004 6.91889 
179 1 11.6383 11.5838 8.47454 
193 1 9.96471 13.1637 9.99426 
198 1 9.98669 16.2382 10.016 
185 1 14.7381 14.702 8.45552 
175 1 16.2854 16.2569 6.86699 
173 1 13.1919 16.3573 6.82829 
138 1 13.1496 13.1429 3.66995 
139 1 14.6471 11.6022 2.02832 
140 1 16.2927 13.0797 3.68344 
164 1 14.7592 11.4956 5.2962 
148 1 13.1099 16.275 3.71958 
149 1 14.6627 14.7701 2.15475 
150 1 16.3036 16.3702 3.67896 
174 1 14.7007 14.7053 5.26235 
163 1 13.1749 13.1555 6.79659 
165 1 16.3196 13.0879 6.85632 
180 1 14.7741 11.5707 8.43142 
194 1 13.1133 13.2249 10.0103 
195 1 16.3157 13.15 10.0268 
199 1 13.0863 16.2573 9.91515 
200 1 16.282 16.2862 10.0036 
206 1 2.11052 11.5771 11.5603 
207 1 3.67033 13.1145 13.1526 
208 1 5.28823 11.541 11.5519 
209 1 6.7847 13.1383 13.1894 
244 1 6.79243 16.3032 16.3705 
243 1 5.2724 14.7397 14.7049 
242 1 3.67145 16.2688 16.2976 
234 1 6.81236 13.1394 16.3714 
241 1 2.07293 14.7527 14.692 
216 1 2.20142 14.7119 11.6229 
217 1 3.65641 16.3353 13.2125 