ITEM: TIMESTEP
0
ITEM: NUMBER OF ATOMS
250
ITEM: BOX BOUNDS pp pp pp
2.1246542862245499e+00 1.7875345713775143e+01
2.1246542862245499e+00 1.7875345713775143e+01
2.1246542862245499e+00 1.7875345713775143e+01
ITEM: ATOMS id type xs ys zs
1 1 1.1278e-16 1.1278e-16 1.40975e-16
2 1 0.1 0.1 0.1
3 1 0.2 1.1278e-16 1.1278e-16
6 1 1.1278e-16 0.2 1.1278e-16
8 1 0.2 0.2 1.1278e-16
14 1 1.1278e-16 1.1278e-16 0.2
16 1 0.2 1.1278e-16 0.2
19 1 1.1278e-16 0.2 0.2
21 1 0.2 0.2 0.2
4 1 0.3 0.1 0.1
5 1 0.4 1.1278e-16 1.1278e-16
10 1 0.4 0.2 1.1278e-16
18 1 0.4 1.1278e-16 0.2
23 1 0.4 0.2 0.2
7 1 0.1 0.3 0.1
11 1 1.1278e-16 0.4 1.1278e-16
12 1 0.2 0.4 1.1278e-16
24 1 1.1278e-16 0.4 0.2
25 1 0.2 0.4 0.2
9 1 0.3 0.3 0.1
13 1 0.4 0.4 1.1278e-16
26 1 0.4 0.4 0.2
15 1 0.1 0.1 0.3
27 1 1.1278e-16 1.1278e-16 0.4
28 1 0.2 1.1278e-16 0.4
30 1 1.1278e-16 0.2 0.4
31 1 0.2 0.2 0.4
17 1 0.3 0.1 0.3
29 1 0.4 1.1278e-16 0.4
32 1 0.4 0.2 0.4
20 1 0.1 0.3 0.3
33 1 1.1278e-16 0.4 0.4
34 1 0.2 0.4 0.4
22 1 0.3 0.3 0.3
35 1 0.4 0.4 0.4
126 1 0.5 0.1 0.1
131 1 0.5 0.3 0.1
138 1 0.5 0.1 0.3
143 1 0.5 0.3 0.3
66 1 0.1 0.5 0.1
67 1 0.3 0.5 0.1
78 1 0.1 0.5 0.3
199 1 0.5 0.5 0.3
79 1 0.3 0.5 0.3
186 1 0.5 0.5 0.1
36 1 0.1 0.1 0.5
216 1 0.5 0.5 0.5
37 1 0.3 0.1 0.5
38 1 0.1 0.3 0.5
39 1 0.3 0.3 0.5
156 1 0.5 0.1 0.5
97 1 0.3 0.5 0.5
159 1 0.5 0.3 0.5
96 1 0.1 0.5 0.5
225 1 0.5 0.5 0.7
40 1 1.40975e-16 1.40975e-16 0.6
41 1 0.1 0.1 0.7
42 1 0.2 1.40975e-16 0.6
45 1 1.40975e-16 0.2 0.6
47 1 0.2 0.2 0.6
115 1 0.3 0.5 0.9
43 1 0.3 0.1 0.7
44 1 0.4 1.1278e-16 0.6
49 1 0.4 0.2 0.6
114 1 0.1 0.5 0.9
46 1 0.1 0.3 0.7
50 1 1.1278e-16 0.4 0.6
51 1 0.2 0.4 0.6
103 1 0.3 0.5 0.7
48 1 0.3 0.3 0.7
52 1 0.4 0.4 0.6
53 1 1.1278e-16 1.1278e-16 0.8
54 1 0.1 0.1 0.9
55 1 0.2 1.1278e-16 0.8
58 1 1.1278e-16 0.2 0.8
60 1 0.2 0.2 0.8
56 1 0.3 0.1 0.9
57 1 0.4 1.1278e-16 0.8
62 1 0.4 0.2 0.8
59 1 0.1 0.3 0.9
63 1 1.1278e-16 0.4 0.8
64 1 0.2 0.4 0.8
61 1 0.3 0.3 0.9
65 1 0.4 0.4 0.8
238 1 0.5 0.5 0.9
162 1 0.5 0.1 0.7
102 1 0.1 0.5 0.7
167 1 0.5 0.3 0.7
174 1 0.5 0.1 0.9
179 1 0.5 0.3 0.9
207 1 0.5 0.9 0.3
68 1 1.1278e-16 0.6 1.1278e-16
69 1 0.1 0.7 0.1
70 1 0.2 0.6 1.1278e-16
80 1 1.1278e-16 0.6 0.2
82 1 0.2 0.6 0.2
202 1 0.5 0.7 0.3
71 1 0.3 0.7 0.1
72 1 0.4 0.6 1.1278e-16
84 1 0.4 0.6 0.2
73 1 1.1278e-16 0.8 1.1278e-16
74 1 0.1 0.9 0.1
75 1 0.2 0.8 1.1278e-16
85 1 1.1278e-16 0.8 0.2
87 1 0.2 0.8 0.2
76 1 0.3 0.9 0.1
77 1 0.4 0.8 1.1278e-16
89 1 0.4 0.8 0.2
194 1 0.5 0.9 0.1
81 1 0.1 0.7 0.3
90 1 1.40975e-16 0.6 0.4
91 1 0.2 0.6 0.4
189 1 0.5 0.7 0.1
83 1 0.3 0.7 0.3
92 1 0.4 0.6 0.4
86 1 0.1 0.9 0.3
93 1 1.1278e-16 0.8 0.4
94 1 0.2 0.8 0.4
88 1 0.3 0.9 0.3
95 1 0.4 0.8 0.4
98 1 0.1 0.7 0.5
99 1 0.3 0.7 0.5
222 1 0.5 0.9 0.5
100 1 0.1 0.9 0.5
101 1 0.3 0.9 0.5
219 1 0.5 0.7 0.5
241 1 0.5 0.7 0.9
125 1 0.4 0.8 0.8
233 1 0.5 0.9 0.7
104 1 1.1278e-16 0.6 0.6
105 1 0.1 0.7 0.7
106 1 0.2 0.6 0.6
246 1 0.5 0.9 0.9
124 1 0.3 0.9 0.9
123 1 0.2 0.8 0.8
107 1 0.3 0.7 0.7
108 1 0.4 0.6 0.6
122 1 0.1 0.9 0.9
109 1 1.1278e-16 0.8 0.6
110 1 0.1 0.9 0.7
111 1 0.2 0.8 0.6
121 1 1.1278e-16 0.8 0.8
112 1 0.3 0.9 0.7
113 1 0.4 0.8 0.6
228 1 0.5 0.7 0.7
116 1 1.1278e-16 0.6 0.8
117 1 0.1 0.7 0.9
118 1 0.2 0.6 0.8
120 1 0.4 0.6 0.8
119 1 0.3 0.7 0.9
155 1 0.8 0.4 0.4
127 1 0.6 1.1278e-16 1.1278e-16
128 1 0.7 0.1 0.1
132 1 0.6 0.2 1.1278e-16
139 1 0.6 1.1278e-16 0.2
144 1 0.6 0.2 0.2
129 1 0.8 1.1278e-16 1.1278e-16
130 1 0.9 0.1 0.1
134 1 0.8 0.2 1.1278e-16
141 1 0.8 1.1278e-16 0.2
146 1 0.8 0.2 0.2
147 1 0.9 0.3 0.3
133 1 0.7 0.3 0.1
136 1 0.6 0.4 1.1278e-16
148 1 0.6 0.4 0.2
135 1 0.9 0.3 0.1
137 1 0.8 0.4 1.1278e-16
149 1 0.8 0.4 0.2
154 1 0.6 0.4 0.4
140 1 0.7 0.1 0.3
150 1 0.6 1.1278e-16 0.4
152 1 0.6 0.2 0.4
142 1 0.9 0.1 0.3
151 1 0.8 1.1278e-16 0.4
153 1 0.8 0.2 0.4
145 1 0.7 0.3 0.3
187 1 0.7 0.5 0.1
188 1 0.9 0.5 0.1
201 1 0.9 0.5 0.3
200 1 0.7 0.5 0.3
157 1 0.7 0.1 0.5
158 1 0.9 0.1 0.5
160 1 0.7 0.3 0.5
161 1 0.9 0.3 0.5
218 1 0.9 0.5 0.5
217 1 0.7 0.5 0.5
185 1 0.8 0.4 0.8
227 1 0.9 0.5 0.7
183 1 0.9 0.3 0.9
163 1 0.6 1.1278e-16 0.6
164 1 0.7 0.1 0.7
168 1 0.6 0.2 0.6
240 1 0.9 0.5 0.9
165 1 0.8 1.1278e-16 0.6
166 1 0.9 0.1 0.7
170 1 0.8 0.2 0.6
184 1 0.6 0.4 0.8
239 1 0.7 0.5 0.9
181 1 0.7 0.3 0.9
169 1 0.7 0.3 0.7
172 1 0.6 0.4 0.6
226 1 0.7 0.5 0.7
171 1 0.9 0.3 0.7
173 1 0.8 0.4 0.6
182 1 0.8 0.2 0.8
175 1 0.6 1.1278e-16 0.8
176 1 0.7 0.1 0.9
180 1 0.6 0.2 0.8
177 1 0.8 1.1278e-16 0.8
178 1 0.9 0.1 0.9
215 1 0.8 0.8 0.4
206 1 0.9 0.7 0.3
211 1 0.9 0.9 0.3
190 1 0.6 0.6 1.1278e-16
191 1 0.7 0.7 0.1
203 1 0.6 0.6 0.2
212 1 0.6 0.6 0.4
192 1 0.8 0.6 1.1278e-16
193 1 0.9 0.7 0.1
205 1 0.8 0.6 0.2
214 1 0.6 0.8 0.4
195 1 0.6 0.8 1.1278e-16
196 1 0.7 0.9 0.1
208 1 0.6 0.8 0.2
197 1 0.8 0.8 1.1278e-16
198 1 0.9 0.9 0.1
210 1 0.8 0.8 0.2
209 1 0.7 0.9 0.3
204 1 0.7 0.7 0.3
213 1 0.8 0.6 0.4
220 1 0.7 0.7 0.5
224 1 0.9 0.9 0.5
221 1 0.9 0.7 0.5
223 1 0.7 0.9 0.5
250 1 0.9 0.9 0.9
242 1 0.6 0.6 0.8
249 1 0.8 0.8 0.8
235 1 0.7 0.9 0.7
248 1 0.7 0.9 0.9
243 1 0.7 0.7 0.9
247 1 0.6 0.8 0.8
229 1 0.6 0.6 0.6
230 1 0.7 0.7 0.7
237 1 0.9 0.9 0.7
234 1 0.6 0.8 0.6
236 1 0.8 0.8 0.6
231 1 0.8 0.6 0.6
232 1 0.9 0.7 0.7
245 1 0.9 0.7 0.9
244 1 0.8 0.6 0.8
