ITEM: TIMESTEP
0 
ITEM: NUMBER OF ATOMS
1724
ITEM: BOX BOUNDS pp pp pp
0.0000000000000000e+00 5.6634808161570760e+01
-4.3161520693613111e-03 4.3165836845682477e+01
-2.8317404080785380e-01 2.8317404080785380e-01
ITEM: ATOMS id type x y z
1 4 0 9.998e-05 0.5
 2 4 0.01 0.0228227 0.5
3 4 0.02 9.998e-05 0.5
4 4 0.03 0.0228227 0.5
5 4 0.04 9.998e-05 0.5
6 4 0.05 0.0228227 0.5
7 4 0.99 0.977177 0.5
8 4 0.98 0.9999 0.5
ITEM: TIMESTEP 
500 
ITEM: NUMBER OF ATOMS
1724
ITEM: BOX BOUNDS pp pp pp
0.0000000000000000e+00 5.6634808161570760e+01
-4.3161520693613111e-03 4.3165836845682477e+01 
-2.8317404080785380e-01 2.8317404080785380e-01
ITEM: ATOMS id type x y z
1 4 0 9.998e-05 0.5
 2 4 0.01 0.0228227 0.5
3 4 0.02 9.998e-05 0.5
4 4 0.03 0.0228227 0.5
5 4 0.04 9.998e-05 0.5
6 4 0.05 0.0228227 0.5
7 4 0.99 0.977177 0.5
8 4 0.98 0.9999 0.5
