ITEM: TIMESTEP
0
ITEM: NUMBER OF ATOMS
500
ITEM: BOX BOUNDS pp pp pp
-2.9813732202599585e-01 2.0298137322026044e+01
-2.9813732202599585e-01 2.0298137322026044e+01
-2.9813732202599585e-01 2.0298137322026044e+01
ITEM: ATOMS id type x y z 
1 1 -0.298137 -0.298137 -0.298137 
2 1 1.76149 1.76149 -0.298137 
3 1 1.76149 -0.298137 1.76149 
4 1 -0.298137 1.76149 1.76149 
5 1 3.82112 -0.298137 -0.298137 
8 1 3.82112 1.76149 1.76149 
6 1 5.88075 1.76149 -0.298137 
7 1 5.88075 -0.298137 1.76149 
9 1 7.94037 -0.298137 -0.298137 
12 1 7.94037 1.76149 1.76149 
10 1 10 1.76149 -0.298137 
11 1 10 -0.298137 1.76149 
13 1 12.0596 -0.298137 -0.298137 
14 1 14.1193 1.76149 -0.298137 
15 1 14.1193 -0.298137 1.76149 
16 1 12.0596 1.76149 1.76149 
17 1 16.1789 -0.298137 -0.298137 
18 1 18.2385 1.76149 -0.298137 
19 1 18.2385 -0.298137 1.76149 
20 1 16.1789 1.76149 1.76149 
21 1 -0.298137 3.82112 -0.298137 
23 1 1.76149 3.82112 1.76149 
22 1 1.76149 5.88075 -0.298137 
24 1 -0.298137 5.88075 1.76149 
25 1 3.82112 3.82112 -0.298137 
27 1 5.88075 3.82112 1.76149 
28 1 3.82112 5.88075 1.76149 
26 1 5.88075 5.88075 -0.298137 
29 1 7.94037 3.82112 -0.298137 
31 1 10 3.82112 1.76149 
32 1 7.94037 5.88075 1.76149 
30 1 10 5.88075 -0.298137 
33 1 12.0596 3.82112 -0.298137 
35 1 14.1193 3.82112 1.76149 
34 1 14.1193 5.88075 -0.298137 
36 1 12.0596 5.88075 1.76149 
37 1 16.1789 3.82112 -0.298137 
39 1 18.2385 3.82112 1.76149 
38 1 18.2385 5.88075 -0.298137 
40 1 16.1789 5.88075 1.76149 
41 1 -0.298137 7.94037 -0.298137 
43 1 1.76149 7.94037 1.76149 
42 1 1.76149 10 -0.298137 
44 1 -0.298137 10 1.76149 
45 1 3.82112 7.94037 -0.298137 
47 1 5.88075 7.94037 1.76149 
48 1 3.82112 10 1.76149 
46 1 5.88075 10 -0.298137 
49 1 7.94037 7.94037 -0.298137 
51 1 10 7.94037 1.76149 
52 1 7.94037 10 1.76149 
50 1 10 10 -0.298137 
53 1 12.0596 7.94037 -0.298137 
55 1 14.1193 7.94037 1.76149 
54 1 14.1193 10 -0.298137 
56 1 12.0596 10 1.76149 
57 1 16.1789 7.94037 -0.298137 
59 1 18.2385 7.94037 1.76149 
58 1 18.2385 10 -0.298137 
60 1 16.1789 10 1.76149 
61 1 -0.298137 12.0596 -0.298137 
62 1 1.76149 14.1193 -0.298137 
63 1 1.76149 12.0596 1.76149 
64 1 -0.298137 14.1193 1.76149 
65 1 3.82112 12.0596 -0.298137 
68 1 3.82112 14.1193 1.76149 
66 1 5.88075 14.1193 -0.298137 
67 1 5.88075 12.0596 1.76149 
69 1 7.94037 12.0596 -0.298137 
72 1 7.94037 14.1193 1.76149 
70 1 10 14.1193 -0.298137 
71 1 10 12.0596 1.76149 
73 1 12.0596 12.0596 -0.298137 
74 1 14.1193 14.1193 -0.298137 
75 1 14.1193 12.0596 1.76149 
76 1 12.0596 14.1193 1.76149 
77 1 16.1789 12.0596 -0.298137 
78 1 18.2385 14.1193 -0.298137 
79 1 18.2385 12.0596 1.76149 
80 1 16.1789 14.1193 1.76149 
81 1 -0.298137 16.1789 -0.298137 
82 1 1.76149 18.2385 -0.298137 
83 1 1.76149 16.1789 1.76149 
84 1 -0.298137 18.2385 1.76149 
85 1 3.82112 16.1789 -0.298137 
88 1 3.82112 18.2385 1.76149 
86 1 5.88075 18.2385 -0.298137 
87 1 5.88075 16.1789 1.76149 
89 1 7.94037 16.1789 -0.298137 
92 1 7.94037 18.2385 1.76149 
90 1 10 18.2385 -0.298137 
91 1 10 16.1789 1.76149 
93 1 12.0596 16.1789 -0.298137 
94 1 14.1193 18.2385 -0.298137 
95 1 14.1193 16.1789 1.76149 
96 1 12.0596 18.2385 1.76149 
97 1 16.1789 16.1789 -0.298137 
98 1 18.2385 18.2385 -0.298137 
99 1 18.2385 16.1789 1.76149 
100 1 16.1789 18.2385 1.76149 
101 1 -0.298137 -0.298137 3.82112 
102 1 1.76149 1.76149 3.82112 
103 1 1.76149 -0.298137 5.88075 
104 1 -0.298137 1.76149 5.88075 
105 1 3.82112 -0.298137 3.82112 
106 1 5.88075 1.76149 3.82112 
108 1 3.82112 1.76149 5.88075 
107 1 5.88075 -0.298137 5.88075 
109 1 7.94037 -0.298137 3.82112 
110 1 10 1.76149 3.82112 
112 1 7.94037 1.76149 5.88075 
111 1 10 -0.298137 5.88075 
113 1 12.0596 -0.298137 3.82112 
114 1 14.1193 1.76149 3.82112 
115 1 14.1193 -0.298137 5.88075 
116 1 12.0596 1.76149 5.88075 
117 1 16.1789 -0.298137 3.82112 
118 1 18.2385 1.76149 3.82112 
119 1 18.2385 -0.298137 5.88075 
120 1 16.1789 1.76149 5.88075 
121 1 -0.298137 3.82112 3.82112 
122 1 1.76149 5.88075 3.82112 
123 1 1.76149 3.82112 5.88075 
124 1 -0.298137 5.88075 5.88075 
125 1 3.82112 3.82112 3.82112 
126 1 5.88075 5.88075 3.82112 
127 1 5.88075 3.82112 5.88075 
128 1 3.82112 5.88075 5.88075 
129 1 7.94037 3.82112 3.82112 
130 1 10 5.88075 3.82112 
131 1 10 3.82112 5.88075 
132 1 7.94037 5.88075 5.88075 
133 1 12.0596 3.82112 3.82112 
134 1 14.1193 5.88075 3.82112 
135 1 14.1193 3.82112 5.88075 
136 1 12.0596 5.88075 5.88075 
137 1 16.1789 3.82112 3.82112 
138 1 18.2385 5.88075 3.82112 
139 1 18.2385 3.82112 5.88075 
140 1 16.1789 5.88075 5.88075 
141 1 -0.298137 7.94037 3.82112 
142 1 1.76149 10 3.82112 
143 1 1.76149 7.94037 5.88075 
144 1 -0.298137 10 5.88075 
145 1 3.82112 7.94037 3.82112 
146 1 5.88075 10 3.82112 
147 1 5.88075 7.94037 5.88075 
148 1 3.82112 10 5.88075 
149 1 7.94037 7.94037 3.82112 
150 1 10 10 3.82112 
151 1 10 7.94037 5.88075 
152 1 7.94037 10 5.88075 
153 1 12.0596 7.94037 3.82112 
154 1 14.1193 10 3.82112 
155 1 14.1193 7.94037 5.88075 
156 1 12.0596 10 5.88075 
157 1 16.1789 7.94037 3.82112 
158 1 18.2385 10 3.82112 
159 1 18.2385 7.94037 5.88075 
160 1 16.1789 10 5.88075 
161 1 -0.298137 12.0596 3.82112 
162 1 1.76149 14.1193 3.82112 
163 1 1.76149 12.0596 5.88075 
164 1 -0.298137 14.1193 5.88075 
165 1 3.82112 12.0596 3.82112 
166 1 5.88075 14.1193 3.82112 
168 1 3.82112 14.1193 5.88075 
167 1 5.88075 12.0596 5.88075 
169 1 7.94037 12.0596 3.82112 
170 1 10 14.1193 3.82112 
172 1 7.94037 14.1193 5.88075 
171 1 10 12.0596 5.88075 
173 1 12.0596 12.0596 3.82112 
174 1 14.1193 14.1193 3.82112 
175 1 14.1193 12.0596 5.88075 
176 1 12.0596 14.1193 5.88075 
177 1 16.1789 12.0596 3.82112 
178 1 18.2385 14.1193 3.82112 
179 1 18.2385 12.0596 5.88075 
180 1 16.1789 14.1193 5.88075 
181 1 -0.298137 16.1789 3.82112 
182 1 1.76149 18.2385 3.82112 
183 1 1.76149 16.1789 5.88075 
184 1 -0.298137 18.2385 5.88075 
185 1 3.82112 16.1789 3.82112 
186 1 5.88075 18.2385 3.82112 
188 1 3.82112 18.2385 5.88075 
187 1 5.88075 16.1789 5.88075 
189 1 7.94037 16.1789 3.82112 
190 1 10 18.2385 3.82112 
192 1 7.94037 18.2385 5.88075 
191 1 10 16.1789 5.88075 
193 1 12.0596 16.1789 3.82112 
194 1 14.1193 18.2385 3.82112 
195 1 14.1193 16.1789 5.88075 
196 1 12.0596 18.2385 5.88075 
197 1 16.1789 16.1789 3.82112 
198 1 18.2385 18.2385 3.82112 
199 1 18.2385 16.1789 5.88075 
200 1 16.1789 18.2385 5.88075 
201 1 -0.298137 -0.298137 7.94037 
202 1 1.76149 1.76149 7.94037 
203 1 1.76149 -0.298137 10 
204 1 -0.298137 1.76149 10 
205 1 3.82112 -0.298137 7.94037 
206 1 5.88075 1.76149 7.94037 
208 1 3.82112 1.76149 10 
207 1 5.88075 -0.298137 10 
209 1 7.94037 -0.298137 7.94037 
210 1 10 1.76149 7.94037 
212 1 7.94037 1.76149 10 
211 1 10 -0.298137 10 
213 1 12.0596 -0.298137 7.94037 
214 1 14.1193 1.76149 7.94037 
215 1 14.1193 -0.298137 10 
216 1 12.0596 1.76149 10 
217 1 16.1789 -0.298137 7.94037 
218 1 18.2385 1.76149 7.94037 
219 1 18.2385 -0.298137 10 
220 1 16.1789 1.76149 10 
221 1 -0.298137 3.82112 7.94037 
222 1 1.76149 5.88075 7.94037 
223 1 1.76149 3.82112 10 
224 1 -0.298137 5.88075 10 
225 1 3.82112 3.82112 7.94037 
226 1 5.88075 5.88075 7.94037 
227 1 5.88075 3.82112 10 
228 1 3.82112 5.88075 10 
229 1 7.94037 3.82112 7.94037 
230 1 10 5.88075 7.94037 
231 1 10 3.82112 10 
232 1 7.94037 5.88075 10 
233 1 12.0596 3.82112 7.94037 
234 1 14.1193 5.88075 7.94037 
235 1 14.1193 3.82112 10 
236 1 12.0596 5.88075 10 
237 1 16.1789 3.82112 7.94037 
238 1 18.2385 5.88075 7.94037 
239 1 18.2385 3.82112 10 
240 1 16.1789 5.88075 10 
241 1 -0.298137 7.94037 7.94037 
242 1 1.76149 10 7.94037 
243 1 1.76149 7.94037 10 
244 1 -0.298137 10 10 
245 1 3.82112 7.94037 7.94037 
246 1 5.88075 10 7.94037 
247 1 5.88075 7.94037 10 
248 1 3.82112 10 10 
249 1 7.94037 7.94037 7.94037 
250 1 10 10 7.94037 
251 1 10 7.94037 10 
252 1 7.94037 10 10 
253 1 12.0596 7.94037 7.94037 
254 1 14.1193 10 7.94037 
255 1 14.1193 7.94037 10 
256 1 12.0596 10 10 
257 1 16.1789 7.94037 7.94037 
258 1 18.2385 10 7.94037 
259 1 18.2385 7.94037 10 
260 1 16.1789 10 10 
261 1 -0.298137 12.0596 7.94037 
262 1 1.76149 14.1193 7.94037 
263 1 1.76149 12.0596 10 
264 1 -0.298137 14.1193 10 
265 1 3.82112 12.0596 7.94037 
266 1 5.88075 14.1193 7.94037 
268 1 3.82112 14.1193 10 
267 1 5.88075 12.0596 10 
269 1 7.94037 12.0596 7.94037 
270 1 10 14.1193 7.94037 
272 1 7.94037 14.1193 10 
271 1 10 12.0596 10 
273 1 12.0596 12.0596 7.94037 
274 1 14.1193 14.1193 7.94037 
275 1 14.1193 12.0596 10 
276 1 12.0596 14.1193 10 
277 1 16.1789 12.0596 7.94037 
278 1 18.2385 14.1193 7.94037 
279 1 18.2385 12.0596 10 
280 1 16.1789 14.1193 10 
281 1 -0.298137 16.1789 7.94037 
282 1 1.76149 18.2385 7.94037 
283 1 1.76149 16.1789 10 
284 1 -0.298137 18.2385 10 
285 1 3.82112 16.1789 7.94037 
286 1 5.88075 18.2385 7.94037 
288 1 3.82112 18.2385 10 
287 1 5.88075 16.1789 10 
289 1 7.94037 16.1789 7.94037 
290 1 10 18.2385 7.94037 
292 1 7.94037 18.2385 10 
291 1 10 16.1789 10 
293 1 12.0596 16.1789 7.94037 
294 1 14.1193 18.2385 7.94037 
295 1 14.1193 16.1789 10 
296 1 12.0596 18.2385 10 
297 1 16.1789 16.1789 7.94037 
298 1 18.2385 18.2385 7.94037 
299 1 18.2385 16.1789 10 
300 1 16.1789 18.2385 10 
301 1 -0.298137 -0.298137 12.0596 
302 1 1.76149 1.76149 12.0596 
303 1 1.76149 -0.298137 14.1193 
304 1 -0.298137 1.76149 14.1193 
305 1 3.82112 -0.298137 12.0596 
308 1 3.82112 1.76149 14.1193 
306 1 5.88075 1.76149 12.0596 
307 1 5.88075 -0.298137 14.1193 
309 1 7.94037 -0.298137 12.0596 
312 1 7.94037 1.76149 14.1193 
310 1 10 1.76149 12.0596 
311 1 10 -0.298137 14.1193 
313 1 12.0596 -0.298137 12.0596 
314 1 14.1193 1.76149 12.0596 
315 1 14.1193 -0.298137 14.1193 
316 1 12.0596 1.76149 14.1193 
317 1 16.1789 -0.298137 12.0596 
318 1 18.2385 1.76149 12.0596 
319 1 18.2385 -0.298137 14.1193 
320 1 16.1789 1.76149 14.1193 
321 1 -0.298137 3.82112 12.0596 
323 1 1.76149 3.82112 14.1193 
322 1 1.76149 5.88075 12.0596 
324 1 -0.298137 5.88075 14.1193 
325 1 3.82112 3.82112 12.0596 
327 1 5.88075 3.82112 14.1193 
328 1 3.82112 5.88075 14.1193 
326 1 5.88075 5.88075 12.0596 
329 1 7.94037 3.82112 12.0596 
331 1 10 3.82112 14.1193 
332 1 7.94037 5.88075 14.1193 
330 1 10 5.88075 12.0596 
333 1 12.0596 3.82112 12.0596 
335 1 14.1193 3.82112 14.1193 
334 1 14.1193 5.88075 12.0596 
336 1 12.0596 5.88075 14.1193 
337 1 16.1789 3.82112 12.0596 
339 1 18.2385 3.82112 14.1193 
338 1 18.2385 5.88075 12.0596 
340 1 16.1789 5.88075 14.1193 
341 1 -0.298137 7.94037 12.0596 
343 1 1.76149 7.94037 14.1193 
342 1 1.76149 10 12.0596 
344 1 -0.298137 10 14.1193 
345 1 3.82112 7.94037 12.0596 
347 1 5.88075 7.94037 14.1193 
348 1 3.82112 10 14.1193 
346 1 5.88075 10 12.0596 
349 1 7.94037 7.94037 12.0596 
351 1 10 7.94037 14.1193 
352 1 7.94037 10 14.1193 
350 1 10 10 12.0596 
353 1 12.0596 7.94037 12.0596 
355 1 14.1193 7.94037 14.1193 
354 1 14.1193 10 12.0596 
356 1 12.0596 10 14.1193 
357 1 16.1789 7.94037 12.0596 
359 1 18.2385 7.94037 14.1193 
358 1 18.2385 10 12.0596 
360 1 16.1789 10 14.1193 
361 1 -0.298137 12.0596 12.0596 
362 1 1.76149 14.1193 12.0596 
363 1 1.76149 12.0596 14.1193 
364 1 -0.298137 14.1193 14.1193 
365 1 3.82112 12.0596 12.0596 
368 1 3.82112 14.1193 14.1193 
366 1 5.88075 14.1193 12.0596 
367 1 5.88075 12.0596 14.1193 
369 1 7.94037 12.0596 12.0596 
372 1 7.94037 14.1193 14.1193 
370 1 10 14.1193 12.0596 
371 1 10 12.0596 14.1193 
373 1 12.0596 12.0596 12.0596 
374 1 14.1193 14.1193 12.0596 
375 1 14.1193 12.0596 14.1193 
376 1 12.0596 14.1193 14.1193 
377 1 16.1789 12.0596 12.0596 
378 1 18.2385 14.1193 12.0596 
379 1 18.2385 12.0596 14.1193 
380 1 16.1789 14.1193 14.1193 
381 1 -0.298137 16.1789 12.0596 
382 1 1.76149 18.2385 12.0596 
383 1 1.76149 16.1789 14.1193 
384 1 -0.298137 18.2385 14.1193 
385 1 3.82112 16.1789 12.0596 
388 1 3.82112 18.2385 14.1193 
386 1 5.88075 18.2385 12.0596 
387 1 5.88075 16.1789 14.1193 
389 1 7.94037 16.1789 12.0596 
392 1 7.94037 18.2385 14.1193 
390 1 10 18.2385 12.0596 
391 1 10 16.1789 14.1193 
393 1 12.0596 16.1789 12.0596 
394 1 14.1193 18.2385 12.0596 
395 1 14.1193 16.1789 14.1193 
396 1 12.0596 18.2385 14.1193 
397 1 16.1789 16.1789 12.0596 
398 1 18.2385 18.2385 12.0596 
399 1 18.2385 16.1789 14.1193 
400 1 16.1789 18.2385 14.1193 
401 1 -0.298137 -0.298137 16.1789 
402 1 1.76149 1.76149 16.1789 
403 1 1.76149 -0.298137 18.2385 
404 1 -0.298137 1.76149 18.2385 
405 1 3.82112 -0.298137 16.1789 
408 1 3.82112 1.76149 18.2385 
406 1 5.88075 1.76149 16.1789 
407 1 5.88075 -0.298137 18.2385 
409 1 7.94037 -0.298137 16.1789 
412 1 7.94037 1.76149 18.2385 
410 1 10 1.76149 16.1789 
411 1 10 -0.298137 18.2385 
413 1 12.0596 -0.298137 16.1789 
414 1 14.1193 1.76149 16.1789 
415 1 14.1193 -0.298137 18.2385 
416 1 12.0596 1.76149 18.2385 
417 1 16.1789 -0.298137 16.1789 
418 1 18.2385 1.76149 16.1789 
419 1 18.2385 -0.298137 18.2385 
420 1 16.1789 1.76149 18.2385 
421 1 -0.298137 3.82112 16.1789 
423 1 1.76149 3.82112 18.2385 
422 1 1.76149 5.88075 16.1789 
424 1 -0.298137 5.88075 18.2385 
425 1 3.82112 3.82112 16.1789 
427 1 5.88075 3.82112 18.2385 
428 1 3.82112 5.88075 18.2385 
426 1 5.88075 5.88075 16.1789 
429 1 7.94037 3.82112 16.1789 
431 1 10 3.82112 18.2385 
432 1 7.94037 5.88075 18.2385 
430 1 10 5.88075 16.1789 
433 1 12.0596 3.82112 16.1789 
435 1 14.1193 3.82112 18.2385 
434 1 14.1193 5.88075 16.1789 
436 1 12.0596 5.88075 18.2385 
437 1 16.1789 3.82112 16.1789 
439 1 18.2385 3.82112 18.2385 
438 1 18.2385 5.88075 16.1789 
440 1 16.1789 5.88075 18.2385 
441 1 -0.298137 7.94037 16.1789 
443 1 1.76149 7.94037 18.2385 
442 1 1.76149 10 16.1789 
444 1 -0.298137 10 18.2385 
445 1 3.82112 7.94037 16.1789 
447 1 5.88075 7.94037 18.2385 
448 1 3.82112 10 18.2385 
446 1 5.88075 10 16.1789 
449 1 7.94037 7.94037 16.1789 
451 1 10 7.94037 18.2385 
452 1 7.94037 10 18.2385 
450 1 10 10 16.1789 
453 1 12.0596 7.94037 16.1789 
455 1 14.1193 7.94037 18.2385 
454 1 14.1193 10 16.1789 
456 1 12.0596 10 18.2385 
457 1 16.1789 7.94037 16.1789 
459 1 18.2385 7.94037 18.2385 
458 1 18.2385 10 16.1789 
460 1 16.1789 10 18.2385 
461 1 -0.298137 12.0596 16.1789 
462 1 1.76149 14.1193 16.1789 
463 1 1.76149 12.0596 18.2385 
464 1 -0.298137 14.1193 18.2385 
465 1 3.82112 12.0596 16.1789 
468 1 3.82112 14.1193 18.2385 
466 1 5.88075 14.1193 16.1789 
467 1 5.88075 12.0596 18.2385 
469 1 7.94037 12.0596 16.1789 
472 1 7.94037 14.1193 18.2385 
470 1 10 14.1193 16.1789 
471 1 10 12.0596 18.2385 
473 1 12.0596 12.0596 16.1789 
474 1 14.1193 14.1193 16.1789 
475 1 14.1193 12.0596 18.2385 
476 1 12.0596 14.1193 18.2385 
477 1 16.1789 12.0596 16.1789 
478 1 18.2385 14.1193 16.1789 
479 1 18.2385 12.0596 18.2385 
480 1 16.1789 14.1193 18.2385 
481 1 -0.298137 16.1789 16.1789 
482 1 1.76149 18.2385 16.1789 
483 1 1.76149 16.1789 18.2385 
484 1 -0.298137 18.2385 18.2385 
485 1 3.82112 16.1789 16.1789 
488 1 3.82112 18.2385 18.2385 
486 1 5.88075 18.2385 16.1789 
487 1 5.88075 16.1789 18.2385 
489 1 7.94037 16.1789 16.1789 
492 1 7.94037 18.2385 18.2385 
490 1 10 18.2385 16.1789 
491 1 10 16.1789 18.2385 
493 1 12.0596 16.1789 16.1789 
494 1 14.1193 18.2385 16.1789 
495 1 14.1193 16.1789 18.2385 
496 1 12.0596 18.2385 18.2385 
497 1 16.1789 16.1789 16.1789 
498 1 18.2385 18.2385 16.1789 
499 1 18.2385 16.1789 18.2385 
500 1 16.1789 18.2385 18.2385 
