LAMMPS (3 Mar 2020)

# Mo, fcc
# # ---------- Initialize Simulation ---------------------
clear
units           metal
dimension       3
boundary        p p p
atom_style      atomic
atom_modify     map array

# # ---------- Create Atoms ---------------------
lattice         fcc 4.00
Lattice spacing in x,y,z = 4 4 4
region          box block 0 5 0 5 0 5 units lattice
create_box      1 box
Created orthogonal box = (0 0 0) to (20 20 20)
  1 by 1 by 1 MPI processor grid
create_atoms    1 box
Created 500 atoms
  create_atoms CPU = 0.00019912 secs

# # ---------- Define Interatomic Potential ---------------------
pair_style      eam/alloy
pair_coeff      * * Mo_Zhou04.eam.alloy Mo
Reading potential file Mo_Zhou04.eam.alloy with DATE: 2018-03-30
neighbor        2.0 bin
neigh_modify    delay 10 check yes

#  # ---------- Define Settings ---------------------
compute         eng all pe/atom
compute         eatoms all reduce sum c_eng

#  # ---------- Run Minimization ---------------------
reset_timestep  0
fix             1 all box/relax iso 0.0 vmax 0.001
thermo          10
thermo_style    custom step pe lx ly lz press pxx pyy pzz c_eatoms
min_style       cg
minimize        1e-25 1e-25 5000 10000
WARNING: Using 'neigh_modify every 1 delay 0 check yes' setting during minimization (src/min.cpp:190)
Neighbor list info ...
  update every 1 steps, delay 0 steps, check yes
  max neighbors/atom: 2000, page size: 100000
  master list distance cutoff = 8.10022
  ghost atom cutoff = 8.10022
  binsize = 4.05011, bins = 5 5 5
  1 neighbor lists, perpetual/occasional/extra = 1 0 0
  (1) pair eam/alloy, perpetual
      attributes: half, newton on
      pair build: half/bin/atomonly/newton
      stencil: half/bin/3d/newton
      bin: standard
Per MPI rank memory allocation (min/avg/max) = 4.713 | 4.713 | 4.713 Mbytes
Step PotEng Lx Ly Lz Press Pxx Pyy Pzz c_eatoms 
       0   -3303.2277           20           20           20    111293.35    111293.35    111293.35    111293.35   -3303.2277 
      10   -3316.9931         20.2         20.2         20.2    71589.907    71589.907    71589.907    71589.907   -3316.9931 
      20   -3325.2265         20.4         20.4         20.4    35724.278    35724.278    35724.278    35724.278   -3325.2265 
      30   -3328.0429    20.596247    20.596247    20.596247    5.3292776    5.3292776    5.3292776    5.3292776   -3328.0429 
      35   -3328.0429    20.596275    20.596275    20.596275 -6.4883881e-10 -6.4710542e-10 -6.4961231e-10 -6.4979869e-10   -3328.0429 
Loop time of 0.040454 on 1 procs for 35 steps with 500 atoms

99.8% CPU use with 1 MPI tasks x no OpenMP threads

Minimization stats:
  Stopping criterion = energy tolerance
  Energy initial, next-to-last, final = 
        -3303.22769512     -3328.04286796     -3328.04286796
  Force two-norm initial, final = 1667.13 1.04311e-11
  Force max component initial, final = 1667.13 1.03075e-11
  Final line search alpha, max atom move = 1 1.03075e-11
  Iterations, force evaluations = 35 41

MPI task timing breakdown:
Section |  min time  |  avg time  |  max time  |%varavg| %total
---------------------------------------------------------------
Pair    | 0.036893   | 0.036893   | 0.036893   |   0.0 | 91.20
Neigh   | 0.00057855 | 0.00057855 | 0.00057855 |   0.0 |  1.43
Comm    | 0.00046099 | 0.00046099 | 0.00046099 |   0.0 |  1.14
Output  | 0.00012837 | 0.00012837 | 0.00012837 |   0.0 |  0.32
Modify  | 0          | 0          | 0          |   0.0 |  0.00
Other   |            | 0.002393   |            |       |  5.92

Nlocal:    500 ave 500 max 500 min
Histogram: 1 0 0 0 0 0 0 0 0 0
Nghost:    1956 ave 1956 max 1956 min
Histogram: 1 0 0 0 0 0 0 0 0 0
Neighs:    33500 ave 33500 max 33500 min
Histogram: 1 0 0 0 0 0 0 0 0 0

Total # of neighbors = 33500
Ave neighs/atom = 67
Neighbor list builds = 1
Dangerous builds = 0
unfix           1

#  # ----------- Run simulation of fcc phase of Mo --------------------
reset_timestep  0
thermo          10
thermo_style    custom step lx ly lz press pxx pyy pzz pe temp
thermo_modify   format 2 %22.18f
velocity        all create 600 12345 mom yes rot no
dump            1 all custom 50 dumpMoFcc200Step.out id type x y z
fix             2 all npt temp 600 600 1 iso 0 0 1 drag 1
run             9999
Per MPI rank memory allocation (min/avg/max) = 4.984 | 4.984 | 4.984 Mbytes
Step Lx Ly Lz Press Pxx Pyy Pzz PotEng Temp 
       0  20.596274644052041225    20.596275    20.596275    4731.1804     4656.758    4827.5031    4709.2802   -3328.0429          600 
      10  20.597209253339329393    20.597209    20.597209    2380.3353     2363.995    2421.5024    2355.5084    -3325.127    554.75987 
      20  20.599017702794235163    20.599018    20.599018   -3544.9742   -3417.6966   -3633.0354   -3584.1905   -3317.2326    432.40749 
      30  20.599241395367915430    20.599241    20.599241   -10187.212    -9901.414   -10392.589   -10267.632    -3307.086    275.16096 
      40  20.595168163979359122    20.595168    20.595168   -14554.274       -14162   -14795.633   -14705.189   -3298.7352    145.10316 
      50  20.585077924111807590    20.585078    20.585078   -14913.618   -14512.657   -15104.822   -15123.373   -3295.4777    92.764278 
      60  20.568963293150698490    20.568963    20.568963   -11126.905   -10843.275   -11225.903   -11311.536   -3297.8402    126.79915 
      70  20.548559003604456308    20.548559    20.548559   -4446.8939    -4399.723   -4472.9145   -4468.0442    -3303.511    212.82243 
      80  20.526768970208514986    20.526769    20.526769    3029.4508    2785.5517      3000.09    3302.7106    -3309.166     300.4835 
      90  20.506753453733939097    20.506753    20.506753    9344.3189    8855.1074     9211.543    9966.3063   -3312.4547    353.27091 
     100  20.491104637503092079    20.491105    20.491105    13496.162    12889.191     13194.24    14405.055   -3312.8047    361.22557 
     110  20.481445339277264850    20.481445    20.481445    15470.998    14912.261    15014.502    16486.231   -3311.1691    337.93126 
     120  20.478451064263474279    20.478451    20.478451    15726.761    15376.046    15212.047    16592.192   -3309.2511    309.11206 
     130  20.482069426295005599    20.482069    20.482069    14741.615    14706.099    14299.064    15219.684   -3308.4612    296.52908 
     140  20.491737570572382765    20.491738    20.491738    12814.695    13108.109    12535.241    12800.734   -3309.0927     305.0425 
     150  20.506510483003971501     20.50651     20.50651    10000.086    10524.561    9883.9467    9591.7514   -3310.3168    322.34241 
     160  20.525081260362004087    20.525081    20.525081    6177.0336    6754.2702    6138.0074    5638.8233   -3310.9302    330.43034 
     170  20.545738560595143696    20.545739    20.545739     1372.315    1828.2208     1285.792    1002.9322   -3310.1979    318.55821 
     180  20.566395740455991614    20.566396    20.566396    -3908.877   -3672.2753   -4142.7431   -3911.6127   -3308.3086    290.02878 
     190  20.584821056398851624    20.584821    20.584821   -8697.0771   -8698.4395   -9096.8433   -8295.9485   -3306.3184    261.02736 
     200  20.599051124017179859    20.599051    20.599051   -11994.346   -12196.008   -12476.363   -11310.668   -3305.5421    251.22115 
     210  20.607805992463447353    20.607806    20.607806   -13222.128   -13540.295    -13640.88    -12485.21   -3306.6522    270.22585 
     220  20.610713571022358792    20.610714    20.610714   -12477.285   -12784.822   -12720.777   -11926.256   -3309.1497     309.8997 
     230  20.608240404054420480     20.60824     20.60824   -10523.068   -10661.591   -10598.555   -10309.056   -3311.6732    349.25381 
     240  20.601351724476209881    20.601352    20.601352   -8364.1442   -8197.8016   -8394.4872   -8500.1439   -3312.8829    367.86348 
     250  20.591088363384088211    20.591088    20.591088   -6591.6534   -6092.2225   -6729.4873   -6953.2503   -3312.2073    357.12754 
     260  20.578322251647367835    20.578322    20.578322   -5087.0424   -4371.3408   -5435.1978   -5454.5886   -3310.0549    323.49027 
     270  20.563800846508677012    20.563801    20.563801   -3326.5753   -2599.7858    -3903.805   -3476.1351   -3307.5737    284.85559 
     280  20.548353123985442892    20.548353    20.548353   -898.93088   -352.01654   -1638.5238   -706.25233    -3306.072    261.69644 
     290  20.533047227003798696    20.533047    20.533047    2207.7693    2479.8486     1423.788    2719.6714   -3306.2595    265.23045 
     300  20.519180395438404219     20.51918     20.51918    5576.0446     5614.339    4857.5895    6256.2054   -3307.7952    290.24404 
     310  20.508098115282020757    20.508098    20.508098    8549.7725    8514.8572    7954.5707    9179.8895   -3309.5701    319.33395 
     320  20.500928731123423177    20.500929    20.500929    10521.711    10600.293    10057.655    10907.187   -3310.4886    335.08792 
     330  20.498350683417584150    20.498351    20.498351    11146.161    11426.447    10809.605    11202.433   -3310.1005    330.11438 
     340  20.500474126324164104    20.500474    20.500474    10429.613    10839.109    10244.806    10204.925   -3308.7494    309.57137 
     350  20.506864643792496850    20.506865    20.506865    8708.0056    9048.7119    8729.2786    8346.0265   -3307.3191    287.29013 
     360  20.516692522244081687    20.516693    20.516693    6486.7278    6544.8181    6738.7656    6176.5997   -3306.7268    277.80044 
     370  20.528940980826760665    20.528941    20.528941    4182.2587    3851.2738     4592.134    4103.3684   -3307.3732    287.62693 
     380  20.542576640875015670    20.542577    20.542577    1974.7548     1320.427    2378.6612    2225.1762   -3308.9082    311.55072 
     390  20.556623457030209323    20.556623    20.556623   -194.78077   -969.74562    23.309144    362.09415   -3310.4886    336.58978 
     400  20.570141848471809709    20.570142    20.570142   -2489.3192   -3156.4907   -2580.1205   -1731.3463   -3311.2832    349.86186 
     410  20.582167033676199708    20.582167    20.582167   -4985.3659   -5392.9751   -5399.4526   -4163.6698   -3310.8943    345.12219 
     420  20.591686116726926059    20.591686    20.591686   -7489.4082   -7593.9692   -8108.3899   -6765.8654   -3309.5595    325.87147 
     430  20.597726243231903709    20.597726    20.597726   -9494.1872   -9330.4436   -10114.083   -9038.0352   -3308.0511     303.7846 
     440  20.599562063031758186    20.599562    20.599562    -10428.33   -10062.455   -10854.899   -10367.636   -3307.2404    292.06657 
     450  20.596940855942264648    20.596941    20.596941   -9984.5798   -9499.6807   -10109.285   -10344.773   -3307.5674    297.41699 
     460  20.590193385850877661    20.590193    20.590193   -8274.3975   -7786.5218   -8109.7785   -8926.8921   -3308.7824    316.12828 
     470  20.580169089580845565    20.580169    20.580169    -5772.798   -5428.7386     -5447.71   -6441.9455   -3310.1068    336.46733 
     480  20.568021878802618119    20.568022    20.568022   -3112.2978   -3040.1947   -2821.5696   -3475.1292   -3310.6857    345.48738 
     490  20.554939377442721593    20.554939    20.554939   -771.26975   -1009.5653    -678.2127    -626.0313   -3310.0932    336.69718 
     500  20.541944850245222653    20.541945    20.541945    1147.1288    673.87392    999.38437    1768.1282   -3308.5915    314.11352 
     510  20.529854656126104828    20.529855    20.529855    2830.1534    2255.4901    2531.7449    3703.2253   -3306.9485    289.54743 
     520  20.519355862298596094    20.519356    20.519356    4520.2832    3966.6365    4227.4305    5366.7825   -3305.9452    275.02572 
     530  20.511106542332321112    20.511107    20.511107    6308.1374    5872.1686    6129.9044    6922.3392   -3305.9355    275.96066 
     540  20.505770880435942871    20.505771    20.505771    7988.7493    7739.9744    7911.4464    8314.8272   -3306.7433    289.50331 
     550  20.503939547049252923     20.50394     20.50394    9159.0079    9103.1388    9071.2576    9302.6271   -3307.8827    307.94613 
     560  20.505975133510954578    20.505975    20.505975     9447.124     9501.599    9225.1032    9614.6697   -3308.8605    323.49263 
     570  20.511874001057954331    20.511874    20.511874    8715.0487    8744.8424    8296.9055    9103.3984   -3309.3901    331.68929 
     580  20.521219086031450729    20.521219    20.521219    7074.9573     6964.747    6497.8707    7762.2542   -3309.4961     333.0767 
     590  20.533229597477141937     20.53323     20.53323    4739.1436    4451.3551    4127.5545    5638.5211   -3309.4492    332.11993 
     600  20.546851425451553297    20.546851    20.546851    1908.5583     1512.043    1407.0188    2806.6131    -3309.496     332.9201 
     610  20.560847150842754161    20.560847    20.560847    -1212.305   -1554.3808   -1515.7489   -566.78527    -3309.595    335.01837 
     620  20.573888693518618709    20.573889    20.573889   -4384.7295   -4492.5438    -4479.598   -4182.0466   -3309.4389    333.66452 
     630  20.584663315487084390    20.584663    20.584663    -7333.089   -7138.0894    -7250.567   -7610.6107   -3308.7472    324.32342 
     640  20.591993581005734626    20.591994    20.591994   -9750.1482   -9378.5882    -9528.631   -10343.225   -3307.5339    306.86607 
     650  20.594967827339836219    20.594968    20.594968   -11269.848    -10991.62   -10943.991   -11873.933    -3306.153    286.39027 
     660  20.593091288859280752    20.593091    20.593091   -11451.878   -11504.579   -11051.336   -11799.717   -3305.1693    271.39224 
     670  20.586453754967688923    20.586454    20.586454   -10002.181   -10423.621   -9575.3666   -10007.554    -3305.108    270.06436 
     680  20.575827218676757013    20.575827    20.575827   -7022.8085   -7620.1155   -6662.5264   -6785.7838   -3306.1532    285.66622 
     690  20.562597832199966064    20.562598    20.562598   -3021.7661   -3473.7543   -2846.0142   -2745.5299   -3307.9872    313.83664 
     700  20.548528614016440486    20.548529    20.548529    1218.5505    1193.8234     1124.943    1336.8851   -3309.9051    344.02676 
     710  20.535415658706945408    20.535416    20.535416    4857.0303    5328.1287    4517.1331    4725.8292   -3311.1609    364.64622 
     720  20.524739896230332903     20.52474     20.52474     7307.597    8051.4108    6892.6743    6978.7061   -3311.3421    368.93423 
     730  20.517441653384345557    20.517442    20.517442    8440.4274    9062.3133    8207.8913    8051.0778   -3310.5428    357.91717 
     740  20.513888060413922432    20.513888    20.513888    8494.1732    8659.9497    8637.8858    8184.6841   -3309.2631    339.08156 
     750  20.513990401956824883     20.51399     20.51399    7847.8759    7442.4683    8367.1249    7734.0344    -3308.126    322.04167 
     760  20.517372109460282559    20.517372    20.517372    6799.0968    5934.5733     7498.539    6964.1781    -3307.563    313.58271 
     770  20.523497585202441940    20.523498    20.523498    5459.4375    4377.4728    6084.2485    5916.5912   -3307.6124    314.45074 
     780  20.531722930714309427    20.531723    20.531723    3804.4388    2761.4944    4188.4177    4463.4044   -3307.9494    319.77687 
     790  20.541289668855384321     20.54129     20.54129    1791.6657    983.56534    1906.7584    2484.6735   -3308.1415    323.00327 
     800  20.551313773736445967    20.551314    20.551314   -477.96138    -955.6898   -553.07501    74.880676   -3307.9418    320.40739 
     810  20.560832758120490382    20.560833    20.560833   -2716.9378   -2884.6402   -2846.8957   -2419.2776   -3307.4305     313.2429 
     820  20.568925751935772439    20.568926    20.568926   -4554.0036    -4517.989   -4608.2563   -4535.7654   -3306.9511    306.73892 
     830  20.574867011141840578    20.574867    20.574867   -5655.5883   -5539.7387   -5566.8446   -5860.1815   -3306.9095    307.03023 
     840  20.578257547593775456    20.578258    20.578258   -5888.9565   -5792.7262   -5667.3279   -6206.8154   -3307.5146    317.22177 
     850  20.579068615347630100    20.579069    20.579069   -5424.0235   -5425.9207    -5129.584   -5716.5657    -3308.572    334.26629 
     860  20.577561427422963902    20.577561    20.577561   -4650.6882   -4800.8365   -4354.0815   -4797.1466   -3309.5383    349.77944 
     870  20.574121118949904030    20.574121    20.574121   -3940.0954   -4232.3303   -3697.3164   -3890.6395   -3309.8502    355.08194 
     880  20.569102387526907449    20.569102    20.569102   -3434.5819   -3822.1275   -3286.8091    -3194.809   -3309.2674    346.46583 
     890  20.562772105974886472    20.562772    20.562772   -2998.0704   -3451.5427   -2965.6611   -2577.0074   -3308.0067    327.29111 
     900  20.555365580295259065    20.555366    20.555366   -2337.8082   -2846.3985   -2413.8827   -1753.1433   -3306.6398    306.44007 
     910  20.547205305110075813    20.547205    20.547205    -1185.049   -1696.9251   -1349.7406   -508.48136   -3305.8177    294.06962 
     920  20.538805118390783377    20.538805    20.538805    530.26756    122.53323     303.1175    1165.1519   -3305.9352    296.39753 
     930  20.530889782131481525     20.53089     20.53089    2599.9931    2409.7911    2341.4026    3048.7857   -3306.9061    312.15984 
     940  20.524301843979060322    20.524302    20.524302    4594.1351    4690.3424    4321.7027      4770.36   -3308.2055    333.19349 
     950  20.519822540753903439    20.519823    20.519823    6028.2626    6415.5488    5738.3287    5930.9102   -3309.1665    349.02074 
     960  20.517981243001763403    20.517981    20.517981    6604.5746    7215.8547    6282.2297    6315.6395   -3309.3328    352.39887 
     970  20.518942255841601252    20.518942    20.518942    6287.5536    6990.4936    5910.9445    5961.2228   -3308.6654    342.63113 
     980  20.522500811202988302    20.522501    20.522501    5268.0868    5913.9819    4817.2509    5073.0276   -3307.5435    325.61705 
     990  20.528168846452455654    20.528169    20.528169     3846.342    4333.9053    3336.1035    3869.0172   -3306.5813    310.98474 
    1000  20.535301992197190657    20.535302    20.535302    2296.5069    2585.8338    1810.7684    2492.9184   -3306.2895      306.774 
    1010  20.543214940275330349    20.543215    20.543215    789.21684    872.39551    456.60127    1038.6537   -3306.7552    314.42677 
    1020  20.551252107538005021    20.551252    20.551252   -641.79767    -768.3498   -718.30365   -438.73955   -3307.6035    328.17488 
    1030  20.558801924568051334    20.558802    20.558802   -2061.2203   -2397.8269   -1851.3907   -1934.4432   -3308.2682      339.236 
    1040  20.565274133270030177    20.565274    20.565274   -3483.5471    -3994.472   -3043.9324   -3412.2369   -3308.3395    341.20828 
    1050  20.570097969353344780    20.570098    20.570098   -4757.5064   -5340.8681   -4215.6999   -4715.9511   -3307.7775    333.38299 
    1060  20.572785035143127175    20.572785    20.572785   -5603.8061   -6112.9398   -5103.5989   -5594.8796   -3306.9432    321.24752 
    1070  20.573042227922602621    20.573042    20.573042   -5741.2711   -6043.5665    -5400.546   -5779.7009   -3306.4222    313.79718 
    1080  20.570880804233482309    20.570881    20.570881   -5047.4972    -5086.696   -4946.4858   -5109.3097   -3306.6548    317.86312 
    1090  20.566656752616147230    20.566657    20.566657   -3658.1131   -3497.1963   -3810.2793   -3666.8638    -3307.605    332.98762 
    1100  20.561004101890056006    20.561004    20.561004   -1942.1783   -1740.3428   -2271.9856   -1814.2065   -3308.7515    351.22125 
    1110  20.554673785521313079    20.554674    20.554674   -371.23386   -281.95387   -746.59974   -85.147969   -3309.4005    361.87746 
    1120  20.548338534825571600    20.548339    20.548339    729.01899    659.05253    441.26067    1086.7438   -3309.0763    357.55786 
    1130  20.542464346366969608    20.542464    20.542464    1369.7253    1194.6008    1283.2669    1631.3082   -3307.7894    338.35292 
    1140  20.537319172689890934    20.537319    20.537319    1830.0638    1619.0647    2036.5843    1834.5426   -3306.1077    313.01025 
    1150  20.533088394818690858    20.533088    20.533088     2419.845     2209.567     2934.064    2115.9039   -3304.9542    295.82248 
    1160  20.530001330109598712    20.530001    20.530001     3279.667      3065.35    3992.2212    2781.4298   -3305.0929    298.64729 
    1170  20.528387482661820229    20.528387    20.528387    4315.1148    4054.4907    5052.4249    3838.4288   -3306.5839    322.42753 
    1180  20.528635407122919787    20.528635    20.528635    5219.4168    4854.6526    5846.7598     4956.838   -3308.7108    356.03352 
    1190  20.531063889041512027    20.531064    20.531064    5520.6751    5023.1678    5965.1084     5573.749   -3310.4428    383.43234 
    1200  20.535731013053354133    20.535731    20.535731    4763.2477    4190.1947    4974.6928    5124.8556   -3310.9645    391.96469 
    1210  20.542257617888704857    20.542258    20.542258    2791.7032    2291.6517    2719.3445    3364.1135    -3309.958    376.78952 
    1220  20.549778021802765693    20.549778    20.549778   -33.125354   -271.21944    -423.2714    595.11478   -3307.7635    343.32774 
    1230  20.557099569430477004      20.5571      20.5571   -2912.9743   -2731.6635   -3613.4858   -2393.7736   -3305.3838    307.18907 
    1240  20.563032939686834766    20.563033    20.563033   -5027.0044   -4393.3641   -5970.1843   -4717.4649   -3304.0164    286.84685 
    1250  20.566729858822832000     20.56673     20.56673   -5876.6937   -4929.9237   -6907.3653   -5792.7922   -3304.2978    292.00576 
    1260  20.567884208211992814    20.567884    20.567884   -5420.9257   -4425.5724    -6317.228   -5519.9767   -3305.9139    317.71845 
    1270  20.566737755294987267    20.566738    20.566738    -4067.842   -3289.5961    -4638.697   -4275.2329   -3307.8809    348.78457 
    1280  20.563897228856376387    20.563897    20.563897   -2530.8798   -2128.6059   -2713.0505   -2750.9831   -3309.1811    369.52088 
    1290  20.560036207435992139    20.560036    20.560036   -1409.5048   -1407.8569   -1283.6552   -1537.0023   -3309.2807    371.68945 
    1300  20.555652249614688287    20.555652    20.555652   -817.91385   -1115.3694   -550.34887   -788.02325   -3308.3015    357.15303 
    1310  20.551019724384751441     20.55102     20.55102   -467.68897   -871.78979    -229.2218   -302.05531   -3306.8911    335.91745 
    1320  20.546306246174680155    20.546306    20.546306    8.8623167   -290.03059    105.80211    210.81543   -3305.8605    320.55265 
    1330  20.541722476938378605    20.541722    20.541722    802.09993    780.72363    718.21189    907.36428   -3305.7265    319.10365 
    1340  20.537598380535097675    20.537598    20.537598    1834.6699    2186.4493    1590.5871    1726.9732    -3306.428    330.65882 
    1350  20.534349273065814145    20.534349    20.534349    2814.0682    3522.4202    2487.7329    2432.0515   -3307.4006    346.47089 
    1360  20.532354749057034837    20.532355    20.532355    3374.2872    4305.8608    3079.7548    2737.2461   -3307.9569    355.84152 
    1370  20.531814095876150361    20.531814    20.531814    3306.6689    4262.5025    3126.3728    2531.1314    -3307.709    352.69822 
    1380  20.532666885363447307    20.532667    20.532667    2677.1291    3468.5596    2602.0932    1960.7345   -3306.7881    339.05378 
    1390  20.534625502426699484    20.534626    20.534626    1778.0669    2292.8966    1720.2182    1321.0859   -3305.7517    323.56907 
    1400  20.537296825950335233    20.537297    20.537297    940.43986     1164.866    801.80845    854.64514   -3305.2276    316.00986 
    1410  20.540317954156545710    20.540318    20.540318    362.15407    346.71205    99.175489    640.57467   -3305.5202    321.12834 
    1420  20.543437358109152058    20.543437    20.543437    60.550133   -117.78301   -293.94273    593.37614   -3306.4461    336.09934 
    1430  20.546521212893814834    20.546521    20.546521    -87.37534   -328.41513   -449.35533    515.64444   -3307.4909    352.95383 
    1440  20.549500696150658996    20.549501    20.549501   -282.29824   -466.23447   -566.54673    185.88649   -3308.1232    363.44734 
    1450  20.552289982451014794     20.55229     20.55229   -676.16563   -697.66203    -831.0438   -499.79106    -3308.063    363.22364 
    1460  20.554726894112345548    20.554727    20.554727   -1237.4951    -1053.444   -1241.3284    -1417.713   -3307.4322    354.15787 
    1470  20.556588837037097051    20.556589    20.556589    -1738.288   -1388.3238   -1596.6312   -2229.9089   -3306.7014    343.52514 
    1480  20.557684107893237524    20.557684    20.557684   -1935.5556   -1533.7863    -1692.541   -2580.3394   -3306.3888    339.35075 
    1490  20.557948810239572879    20.557949    20.557949   -1736.9568   -1446.1339   -1463.5776   -2301.1589   -3306.7032    344.87406 
    1500  20.557481537267502603    20.557482    20.557482   -1256.8069   -1256.4923   -999.46473   -1514.4637   -3307.3939    356.22992 
    1510  20.556492036245710864    20.556492    20.556492   -782.85245   -1212.1313   -538.24759   -598.17841   -3307.9041    364.80221 
    1520  20.555182154270628558    20.555182    20.555182   -611.15546   -1474.5549   -360.87816    1.9666402   -3307.7385    362.90799 
    1530  20.553628265936474406    20.553628    20.553628    -821.2559   -1941.2514   -580.96757     58.45125   -3306.8134    349.22427 
    1540  20.551754095653308241    20.551754    20.551754   -1190.7924   -2261.7233   -1033.6044   -277.04934   -3305.5424    330.13811 
    1550  20.549422362648250839    20.549422    20.549422   -1353.8695   -2078.0399   -1375.8498   -607.71891   -3304.6087    316.23479 
    1560  20.546584399787370501    20.546584    20.546584   -1010.9894   -1245.2536   -1268.6257   -519.08884   -3304.5534    315.92763 
    1570  20.543399164520977251    20.543399    20.543399   -100.63901    87.917037   -570.44811    180.61404   -3305.4366    330.20114 
    1580  20.540252044822590705    20.540252    20.540252    1136.5559    1543.2397    538.89204    1327.5359   -3306.7905     351.8502 
    1590  20.537650726677298962    20.537651    20.537651    2246.7173    2658.5209    1593.5845    2488.0464   -3307.8841    369.53628 
    1600  20.536039300115646711    20.536039    20.536039    2821.7126    3095.9412    2129.0093    3240.1873   -3308.1267    374.04832 
    1610  20.535636868742912498    20.535637    20.535637    2762.4732    2842.7393    2020.1783    3424.5019   -3307.4017    363.52021 
    1620  20.536400772128402537    20.536401    20.536401    2277.9341    2188.0694    1515.9832    3129.7497   -3306.1698    345.06652 
    1630  20.538114514321968329    20.538115    20.538115    1708.4772     1514.605    1014.1145    2596.7121   -3305.2295    331.08253 
    1640  20.540526732685769673    20.540527    20.540527    1303.3677    1059.1482    774.02908    2076.9258    -3305.222    331.54127 
    1650  20.543455140907251888    20.543455    20.543455     1137.607    853.06376    839.33022    1720.4269   -3306.2269    347.70699 
    1660  20.546815042749535962    20.546815    20.546815    1073.2097    725.77805    1019.7899    1474.0611   -3307.7399    371.78332 
    1670  20.550559350214655296    20.550559    20.550559    776.63116    345.19401    927.70992    1056.9895   -3308.9823    391.70771 
    1680  20.554542433471496565    20.554542    20.554542   -84.954698     -574.313    193.68559    125.76331    -3309.293    397.23468 
    1690  20.558392178151230212    20.558392    20.558392   -1525.9295   -1957.0817   -1221.7933   -1398.9134   -3308.4296    384.60835 
    1700  20.561510990706182156    20.561511    20.561511   -3164.8018   -3385.0106   -2941.0202   -3168.3746   -3306.7249    358.95341 
    1710  20.563233345302666777    20.563233    20.563233    -4467.871   -4417.1839   -4395.4022   -4591.0269   -3304.9701    332.46466 
    1720  20.563045721571647562    20.563046    20.563046   -5013.2981   -4775.5715   -5104.1998   -5160.1231     -3303.98    317.69666 
    1730  20.560760486410806891     20.56076     20.56076   -4607.3012   -4340.8871     -4817.06   -4663.9565    -3304.114     320.2206 
    1740  20.556589547179388688     20.55659     20.55659   -3352.8414   -3190.5992   -3610.0966   -3257.8282   -3305.1158     336.1467 
    1750  20.551092568878591038    20.551093    20.551093   -1626.4717   -1632.0136   -1868.8052   -1378.5961   -3306.3557    355.83889 
    1760  20.545015369260163141    20.545015    20.545015    113.84115   -60.991605   -74.511156    477.02622   -3307.2304    370.01669 
    1770  20.539099171494839879    20.539099    20.539099    1565.5694    1279.1593     1446.871    1970.6778   -3307.4219    373.73698 
    1780  20.533953246589135233    20.533953    20.533953    2618.5268    2338.0641    2569.9144     2947.602   -3306.9619    367.42459 
    1790  20.530005548737598531    20.530006    20.530006     3215.441    3067.7241    3232.5414    3346.0574   -3306.1332    355.38549 
    1800  20.527483234844336124    20.527483    20.527483    3340.6267    3359.0011    3427.3382    3235.5408   -3305.2691    342.73362 
    1810  20.526413437318986155    20.526413    20.526413    3089.2153    3165.2116    3263.2014    2839.2331   -3304.5889    332.85149 
    1820  20.526668986609543310    20.526669    20.526669    2686.1524      2641.16    2970.7553    2446.5418   -3304.1653    326.88299 
    1830  20.528061650308124797    20.528062    20.528062    2345.1851    2079.8064    2725.5061     2230.243   -3304.0005    324.88766 
    1840  20.530427985050472728    20.530428    20.530428    2132.8742    1714.4402     2509.312    2174.8705   -3304.1213    327.30249 
    1850  20.533658889164051686    20.533659    20.533659    2012.1571    1596.2264    2238.9225    2201.3223    -3304.601    335.27682 
    1860  20.537684894165174398    20.537685    20.537685    1897.9218    1589.0531    1890.5592    2214.1533   -3305.4954    349.68499 
    1870  20.542438844727957559    20.542439    20.542439    1655.5867    1462.9007    1449.1026    2054.7567   -3306.7059    369.01691 
    1880  20.547799446200777140    20.547799    20.547799     1128.691    1004.9415    832.46533    1548.6663   -3307.9012    388.15651 
    1890  20.553528065217868459    20.553528    20.553528    208.34471    118.33674   -82.842143    589.53955   -3308.6307    400.14552 
    1900  20.559225988210506841    20.559226    20.559226   -1104.0221   -1135.7875     -1373.31   -802.96886   -3308.5587    399.79289 
    1910  20.564340181855897072     20.56434     20.56434   -2634.3438   -2553.4693   -2924.3574   -2425.2048   -3307.6747    386.92411 
    1920  20.568239601181844023     20.56824     20.56824   -4055.3366    -3859.883   -4364.8799   -3941.2469   -3306.3813    367.72086 
    1930  20.570353251011162854    20.570353    20.570353    -4987.715   -4777.2202   -5202.4688    -4983.456   -3305.3346    352.26348 
    1940  20.570325610927355342    20.570326    20.570326   -5170.5633   -5105.5693   -5125.1364   -5280.9842   -3305.0554     348.5653 
    1950  20.568120499073529572     20.56812     20.56812   -4577.0736   -4757.2962   -4197.1504   -4776.7743   -3305.5896    357.34868 
    1960  20.564025815173827993    20.564026    20.564026   -3436.2572   -3811.4868   -2818.0034   -3679.2812   -3306.4804    371.61179 
    1970  20.558550980994791502    20.558551    20.558551   -2161.6449   -2571.2094   -1528.2317   -2385.4938   -3307.0749    381.32066 
    1980  20.552254987469471104    20.552255    20.552255   -1095.6001   -1394.6325   -679.07936   -1213.0886   -3306.9302    379.64105 
    1990  20.545605373591222076    20.545605    20.545605   -331.60477   -499.61887    -254.0373   -241.15815   -3306.0261    366.24229 
    2000  20.538940566344095373    20.538941    20.538941    296.31438    159.02295    83.617342    646.30285   -3304.7291     346.7777 
    2010  20.532538339445260078    20.532538    20.532538     1077.046    852.47442    752.66336    1626.0002   -3303.6299    330.40089 
    2020  20.526731386336969365    20.526731    20.526731    2196.2538    1835.0074    1965.4908    2788.2632   -3303.2805    325.68916 
    2030  20.521979879450455542     20.52198     20.52198    3600.5879    3132.6712     3607.762    4061.3305   -3303.8705      335.598 
    2040  20.518846244490610786    20.518846    20.518846    5000.9704    4494.6745    5286.9039    5221.3327   -3305.0809    355.14913 
    2050  20.517876172469527774    20.517876    20.517876    6001.2501    5523.2718    6509.4854    5970.9932   -3306.2739    374.36824 
    2060  20.519438125739249301    20.519438    20.519438    6245.7021    5853.1179    6844.7727    6039.2156   -3306.9031    384.69486 
    2070  20.523582193884024605    20.523582    20.523582    5565.5769    5311.9619    6070.2795    5314.4892   -3306.8356    384.04745 
    2080  20.529979375764252580    20.529979    20.529979    4100.4657    4029.9308    4336.1579    3935.3084   -3306.3575    376.94615 
    2090  20.537982067858560953    20.537982    20.537982    2205.3854    2325.2765    2097.6679    2193.2119   -3305.9182    370.50115 
    2100  20.546770860137449688    20.546771    20.546771    245.48014    503.18862   -144.95438    378.20617   -3305.8299    369.66291 
    2110  20.555504905054135634    20.555505    20.555505   -1584.3588   -1286.1722   -2111.7656   -1355.1384   -3306.0893    374.41902 
    2120  20.563404300110324385    20.563404    20.563404   -3283.0462   -3042.2408   -3813.1705   -2993.7274   -3306.3956    380.07221 
    2130  20.569755809766846255    20.569756    20.569756   -4910.5142   -4791.3721    -5373.232   -4566.9384   -3306.3377    380.16681 
    2140  20.573894015226962040    20.573894    20.573894   -6396.8043   -6417.5489   -6762.4132   -6010.4509   -3305.6635    370.66851 
    2150  20.575236237755405000    20.575236    20.575236   -7426.2971   -7576.7661   -7660.4098   -7041.7154   -3304.5034    353.44253 
    2160  20.573411724035295833    20.573412    20.573412    -7578.994   -7839.0446    -7619.337   -7278.6006   -3303.3902    336.63302 
    2170  20.568429017101891532    20.568429    20.568429   -6575.2787   -6915.2744   -6357.7659   -6452.7959   -3302.9972    330.70343 
    2180  20.560781698410444562    20.560782    20.560782   -4449.8144   -4827.5065   -3973.5091   -4548.4277   -3303.6968    341.62967 
    2190  20.551420720302981948    20.551421    20.551421   -1588.2132   -1939.8966   -965.65931   -1859.0836   -3305.2314     365.7027 
    2200  20.541581093448247231    20.541581    20.541581    1386.9761    1147.1684    1944.5707     1069.189   -3306.8137    390.89992 
    2210  20.532516560445827736    20.532517    20.532517    3850.7247    3783.2189    4140.4417    3628.5137   -3307.6276    404.52693 
    2220  20.525239758843419224     20.52524     20.52524    5381.2467    5443.4279    5327.2535    5373.0586   -3307.3147    400.81331 
    2230  20.520355569916656435    20.520356    20.520356    5885.1208     5925.765    5546.8103     6182.787   -3306.1206    383.34259 
    2240  20.518031783048755301    20.518032    20.518032    5563.1765    5423.3788     5074.516    6191.6348   -3304.6919    362.02165 
    2250  20.518092318117709283    20.518092    20.518092    4802.7083    4457.1156    4316.9589    5634.0505   -3303.7036    347.32539 
    2260  20.520180186806715739     20.52018     20.52018    3951.7257    3548.1385    3575.1315     4731.907   -3303.5058    344.75767 
    2270  20.523901661165453447    20.523902    20.523902    3154.6618    2895.8819    2894.7154     3673.388   -3303.9579    352.22058 
    2280  20.528885700767130373    20.528886    20.528886    2328.2617    2316.3214     2129.017    2539.4467   -3304.5697    362.17064 
    2290  20.534751617287881231    20.534752    20.534752    1271.3878    1451.6817    1116.3566    1246.1252   -3304.8391    366.86606 
    2300  20.541031408759302224    20.541031    20.541031   -102.55984    140.29515   -148.02033   -299.95435   -3304.5814    363.47916 
    2310  20.547143213343176171    20.547143    20.547143   -1540.1891   -1314.6815    -1402.128   -1903.7578   -3304.0701    356.26158 
    2320  20.552495797056256066    20.552496    20.552496   -2581.3466   -2365.3083   -2261.2497   -3117.4818   -3303.8729    353.97933 
    2330  20.556673845909248399    20.556674    20.556674   -2865.4686   -2605.8426   -2435.3249   -3555.2383   -3304.4655    363.94993 
    2340  20.559578921332239076    20.559579    20.559579    -2404.992    -2047.665   -1960.2921   -3207.0187   -3305.8792    386.62859 
    2350  20.561416525382092857    20.561417    20.561417   -1633.2038   -1164.6826    -1266.991   -2467.9379   -3307.6104    414.22166 
    2360  20.562514295582481338    20.562514    20.562514   -1164.8075    -653.4276   -954.44088   -1886.5541   -3308.8313    433.91204 
    2370  20.563069653752279464     20.56307     20.56307    -1447.563    -1035.662   -1444.2289   -1862.7982    -3308.794    434.10077 
    2380  20.562972724830601123    20.562973    20.562973    -2464.054   -2288.3988   -2668.6613   -2435.1021   -3307.2659    411.14278 
    2390  20.561819643672329505     20.56182     20.56182   -3738.2445   -3835.9091   -4084.6992   -3294.1253   -3304.7646    373.00076 
    2400  20.559111905158992784    20.559112    20.559112   -4600.6105   -4884.4635   -4986.0534   -3931.3145   -3302.3794    336.49677 
    2410  20.554534588348165158    20.554535    20.554535    -4468.206    -4761.668   -4821.7641   -3821.1858   -3301.1841    318.27267 
    2420  20.548191580639425524    20.548192    20.548192    -3109.786   -3206.5483   -3430.5132   -2692.2964   -3301.6203    325.28864 
    2430  20.540690362486468956     20.54069     20.54069   -755.27475   -522.26743   -1058.2438   -685.31302   -3303.3222    352.07942 
    2440  20.533036632452475345    20.533037    20.533037    2032.9425    2567.4305     1773.608    1757.7888   -3305.4247    385.37724 
    2450  20.526392224821449872    20.526392    20.526392    4572.5786    5239.5799    4400.5942    4077.5616   -3307.0401    411.38788 
    2460  20.521790570643105411    20.521791    20.521791    6293.3318     6876.317    6226.6323    5777.0461   -3307.6364    421.66905 
    2470  20.519904320672864628    20.519904    20.519904    6862.3734     7176.645    6874.1545    6536.3208   -3307.1961    415.72551 
    2480  20.520917881473607736    20.520918    20.520918    6255.6179    6205.5835    6285.5612     6275.709   -3306.1272    399.78031 
    2490  20.524527806602065994    20.524528    20.524528    4744.3913    4350.8691    4734.2321    5148.0727   -3304.9939    382.63945 
    2500  20.530061600820282308    20.530062    20.530062    2763.8251    2136.1329    2669.4946    3485.8478   -3304.1979    370.68935 
    2510  20.536660084903601842     20.53666     20.53666    731.86033    30.039107    484.46776    1681.0741    -3303.802    365.03755 
    2520  20.543452685356427878    20.543453    20.543453   -1055.8692   -1653.3905   -1540.5019    26.284708   -3303.6417    363.18897 
    2530  20.549680397022463296     20.54968     20.54968    -2482.248   -2836.6177   -3199.7594    -1410.367   -3303.5585    362.65882 
    2540  20.554745732024365168    20.554746    20.554746   -3563.5858   -3637.2352   -4371.3357   -2682.1864   -3303.4939    362.46865 
    2550  20.558209942566179507     20.55821     20.55821   -4288.1552   -4151.4695   -4993.1695   -3719.8265   -3303.4648    362.81255 
    2560  20.559799205351890095    20.559799    20.559799   -4534.9517   -4304.5828   -5013.7077   -4286.5646   -3303.5375    364.65582 
    2570  20.559448272932069557    20.559448    20.559448   -4207.4915   -3985.6804   -4461.5975   -4175.1966   -3303.7911    369.20586 
    2580  20.557332043479423334    20.557332    20.557332   -3384.1201   -3251.6121   -3513.5439   -3387.2043   -3304.2248     376.4783 
    2590  20.553828169406401116    20.553828    20.553828   -2291.9587    -2320.537   -2398.4616   -2156.8776   -3304.6826    384.11307 
    2600  20.549422258779557637    20.549422    20.549422   -1135.2494    -1378.962   -1246.9681   -779.81807   -3304.9372    388.63882 
    2610  20.544620613336174841    20.544621    20.544621   -32.196799   -492.20949   -138.80156    534.42065   -3304.8715    388.26142 
    2620  20.539895405941617668    20.539895    20.539895    890.71363    309.87971    767.70213    1594.5591   -3304.5482     383.9437 
    2630  20.535633755875494444    20.535634    20.535634    1555.8512    1060.6771    1356.0408    2250.8359   -3304.1403     378.3431 
    2640  20.532110786622645549    20.532111    20.532111    2035.8066    1902.9532    1696.5399    2507.9266   -3303.8441    374.47826 
    2650  20.529519526384135020     20.52952     20.52952    2456.6946    2898.2724    1946.6337    2525.1776   -3303.8123    374.70209 
    2660  20.528022069084705947    20.528022    20.528022    2889.1991    3885.7701    2250.5385    2531.2887   -3304.1061    379.95583 
    2670  20.527780509677466370    20.527781    20.527781    3336.9516    4613.4744    2707.9694    2689.4109   -3304.6924    389.71518 
    2680  20.528957545579842758    20.528958    20.528958    3707.4849    4890.6278    3271.6332    2960.1936   -3305.4598    402.24078 
    2690  20.531676447545464725    20.531676    20.531676    3787.1317    4605.5388    3668.4264    3087.4301   -3306.2229     414.6414 
    2700  20.535933207846966297    20.535933    20.535933    3301.5129    3698.1902    3482.3672    2723.9814   -3306.7405    423.18923 
    2710  20.541489270102943010    20.541489    20.541489    2108.0496    2217.0824    2416.8848    1690.1814   -3306.7836    424.38531 
    2720  20.547817627596920431    20.547818    20.547818    286.07546    305.00365    486.13663    67.086109   -3306.2089    416.08276 
    2730  20.554137684260489038    20.554138    20.554138   -1928.9111   -1857.9498   -2001.1483   -1927.6352   -3305.0281    398.51634 
    2740  20.559519497056207626    20.559519    20.559519   -4146.4566   -3965.8967   -4527.9649   -3945.5081   -3303.4658    375.13938 
    2750  20.563053276588490803    20.563053    20.563053   -5832.4495   -5547.5678   -6480.3656   -5469.4152   -3301.9369    352.25947 
    2760  20.564070740060955700    20.564071    20.564071   -6511.5562   -6199.2536   -7305.0965   -6030.3185   -3300.9108    337.00466 
    2770  20.562336372903317283    20.562336    20.562336    -5987.891   -5798.5585   -6690.5915   -5474.5229   -3300.7573    335.05855 
    2780  20.558123432847828838    20.558123    20.558123   -4362.1746   -4439.0423   -4708.2247   -3939.2568   -3301.6259    348.83604 
    2790  20.552161976558920742    20.552162    20.552162   -1986.1125   -2355.4883   -1867.4639   -1735.3854   -3303.3203    375.48812 
    2800  20.545480654964343614    20.545481    20.545481     611.8062    67.963237    1077.0807    690.37462   -3305.3089    406.93029 
    2810  20.539179035538488449    20.539179    20.539179    2872.2897    2355.9826    3461.9769    2798.9095   -3306.9753     433.6172 
    2820  20.534194612125070023    20.534195    20.534195    4380.9905    4095.2481    4911.4697    4136.2536   -3307.8764    448.55724 
    2830  20.531131077694315223    20.531131    20.531131    4876.6897    4940.0282    5261.3936    4428.6471   -3307.8044    448.36706 
    2840  20.530156131441088974    20.530156    20.530156    4263.8731    4641.2221    4523.2155    3627.1817    -3306.774    433.18068 
    2850  20.530977013740724146    20.530977    20.530977    2758.5533    3272.4516    2982.6158    2020.5927   -3305.0588    407.24797 
    2860  20.532939947987959073     20.53294     20.53294    863.79552    1299.8178    1112.0505    179.51825   -3303.1677     378.5325 
    2870  20.535240949808674316    20.535241    20.535241    -849.6648   -628.89819   -609.40437   -1310.6918   -3301.6524    355.64178 
    2880  20.537162083206403906    20.537162    20.537162   -1959.1238    -1953.669   -1808.3844    -2115.318   -3300.8644    344.03211 
    2890  20.538246805513566073    20.538247    20.538247   -2262.8917   -2353.9579   -2260.8184   -2173.8989   -3300.8736    344.77286 
    2900  20.538381204137920122    20.538381    20.538381   -1784.4352   -1842.0082   -1924.7016   -1586.5957   -3301.5513    355.86778 
    2910  20.537776902570772819    20.537777    20.537777    -784.4549   -784.33461   -998.77753   -570.25255    -3302.658    373.62738 
    2920  20.536859148555237198    20.536859    20.536859    372.54488    312.03095    172.35909    633.24459   -3303.8923    393.40621 
    2930  20.536114656305613835    20.536115    20.536115    1396.1365    1116.7202    1254.9301    1816.7592   -3304.9591    410.63057 
    2940  20.535969116712387006    20.535969    20.535969     2117.583    1596.5564     1985.655    2770.5376   -3305.6328    421.77534 
    2950  20.536711442400278571    20.536711    20.536711    2357.8433     1730.478    2121.1046    3221.9472   -3305.7709    424.60238 
    2960  20.538420891856091544    20.538421    20.538421    1936.2807    1367.5226    1517.5379    2923.7816   -3305.3364    418.51895 
    2970  20.540900659978277076    20.540901    20.540901     852.1421    436.80693    303.67718    1815.9422   -3304.4186    404.92735 
    2980  20.543687790601381948    20.543688    20.543688   -588.77861   -831.27436   -1086.6877    151.62627   -3303.2203    386.99687 
    2990  20.546180735886409252    20.546181    20.546181   -1931.5361    -2052.025   -2155.4593   -1587.1241   -3302.0591    369.65719 
    3000  20.547827288111527366    20.547827    20.547827   -2790.6131   -2902.4899   -2577.1758   -2892.1736   -3301.3439    359.22038 
    3010  20.548283312361142805    20.548283    20.548283   -2980.4377    -3186.896   -2324.8575   -3429.5596   -3301.4046    360.77389 
    3020  20.547489718652762747     20.54749     20.54749   -2485.7591   -2793.0764   -1576.6961   -3087.5048    -3302.262    374.65016 
    3030  20.545675993476748999    20.545676    20.545676   -1413.9329   -1736.4619   -561.14661   -1944.1902   -3303.5931    395.88244 
    3040  20.543308216730729043    20.543308    20.543308   -14.483969   -260.89164    478.36744    -260.9277   -3304.9352    417.34723 
    3050  20.540976498151831464    20.540976    20.540976     1300.744    1176.3466    1248.4249    1477.4605   -3305.8984    433.00365 
    3060  20.539224295523894170    20.539224    20.539224    2121.5611    2129.7164    1553.9822    2680.9847   -3306.2014    438.45598 
    3070  20.538380782868010499    20.538381    20.538381    2204.2272    2315.3415    1370.3328    2927.0074   -3305.7078    431.53975 
    3080  20.538466333502068295    20.538466    20.538466    1599.6355    1766.5275    828.19598    2204.1831   -3304.5776    414.70761 
    3090  20.539219458851214029    20.539219    20.539219    631.39344    822.89761    170.75569    900.52702    -3303.287    395.34696 
    3100  20.540231331062717146    20.540231    20.540231   -302.57723   -105.39703   -351.15234   -451.18231   -3302.3599    381.59926 
    3110  20.541112403237701045    20.541112    20.541112   -877.89785   -697.60963   -554.99752   -1381.0864   -3302.0369    377.21078 
    3120  20.541625283292304971    20.541625    20.541625   -963.76535   -815.70686   -430.25254   -1645.3367   -3302.2301    380.82489 
    3130  20.541736148146309660    20.541736    20.541736   -667.38974   -546.01436   -166.55987    -1289.595   -3302.7257    389.13415 
    3140  20.541567732029179183    20.541568    20.541568   -266.28292   -158.48506   -59.507228   -580.85647   -3303.3325    399.18211 
    3150  20.541288229806824006    20.541288    20.541288    44.199319    136.15291   -219.26426    215.70931   -3303.8937    408.54021 
    3160  20.541032234127598599    20.541032    20.541032    276.33078    329.89864    -448.0188     947.1125   -3304.2851     415.2786 
    3170  20.540900933179706556    20.540901    20.540901    503.34597    491.80881   -481.75751    1499.9866    -3304.452    418.54232 
    3180  20.540988480296469731    20.540988    20.540988    715.50584    641.24381   -246.18922    1751.4629   -3304.4138    418.62429 
    3190  20.541376802900256138    20.541377    20.541377    790.32729     738.1245    75.204299    1557.6531   -3304.2101    416.13336 
    3200  20.542088113483810474    20.542088    20.542088    602.63799     739.3636     194.2169    874.33346   -3303.8628    411.40428 
    3210  20.543036897904130456    20.543037    20.543037    147.99702    606.68128   -60.490484   -102.19973   -3303.4228    405.23093 
    3220  20.544031274671223031    20.544031    20.544031   -421.96935    329.35204   -604.34864   -990.91145   -3303.0312    399.80417 
    3230  20.544836018005756983    20.544836    20.544836   -888.35401   -46.352357   -1158.8575   -1459.8522   -3302.8553    397.71926 
    3240  20.545260871587004203    20.545261    20.545261    -1113.551   -443.72399   -1471.8982   -1425.0309   -3302.9503    399.83101 
    3250  20.545215569642440556    20.545216    20.545216   -1120.1343   -817.78909   -1465.6128    -1077.001   -3303.2106    404.50617 
    3260  20.544699157467729123    20.544699    20.544699   -1073.2795   -1207.7191   -1258.1896   -753.92979   -3303.4345    408.61629 
    3270  20.543732789518763582    20.543733    20.543733   -1143.9426   -1646.6215   -1058.5674   -726.63881   -3303.4007    408.72936 
    3280  20.542293350926286166    20.542293    20.542293   -1338.8828   -2015.9923   -984.19285   -1016.4632   -3302.9614    402.54298 
    3290  20.540312352024464815    20.540312    20.540312   -1476.6275   -2064.0732   -976.53882   -1389.2704   -3302.1589    390.70011 
    3300  20.537748352914778849    20.537748    20.537748    -1336.107    -1581.861   -894.03616   -1532.4239   -3301.2555     377.2651 
    3310  20.534674776189394407    20.534675    20.534675   -804.60288   -566.92489   -610.59108   -1236.2927   -3300.6302    368.12778 
    3320  20.531328222082798618    20.531328    20.531328    174.78882    861.37377    30.504104   -367.51142   -3300.6224    368.58732 
    3330  20.528129147112910147    20.528129    20.528129    1583.5667    2542.9964    1124.5195    1083.1843    -3301.403    381.32869 
    3340  20.525663725824784933    20.525664    20.525664    3168.9832    4146.3789    2522.9893    2837.5813   -3302.8713    404.79758 
    3350  20.524577598116103161    20.524578    20.524578    4532.3763    5246.0609    3913.6235    4437.4444   -3304.6531    433.14657 
    3360  20.525413144435390222    20.525413    20.525413    5301.0321    5516.4426    4930.3352    5456.3184    -3306.217    458.05395 
    3370  20.528454045215944745    20.528454    20.528454    5143.5292    4773.5629    5118.4502    5538.5743   -3307.0179    471.01279 
    3380  20.533591884253276305    20.533592    20.533592    3848.9903    2995.7764     4107.807    4443.3875   -3306.6936     466.4382 
    3390  20.540247219705030091    20.540247    20.540247    1482.5977    362.81303    1912.0458    2172.9344   -3305.2636    444.75963 
    3400  20.547406494434582669    20.547406    20.547406   -1507.0687   -2677.7178   -1007.5072   -835.98108   -3303.1584    412.78615 
    3410  20.553814667391058890    20.553815    20.553815   -4382.3235   -5447.4683    -3956.442   -3743.0603   -3301.0502    380.94751 
    3420  20.558281373563545458    20.558281    20.558281   -6438.3473   -7281.1252   -6292.2604   -5741.6564   -3299.6041    359.39836 
    3430  20.559976252917721240    20.559976    20.559976   -7202.4221    -7718.167   -7500.7045   -6388.3949   -3299.2192    354.12699 
    3440  20.558621444404487022    20.558621    20.558621   -6586.3441    -6718.537   -7316.6638   -5723.8314    -3299.837     364.1526 
    3450  20.554519268653013597    20.554519    20.554519   -4928.7782   -4712.7232   -5888.9597   -4184.6517   -3301.0087    382.61917 
    3460  20.548404779745361282    20.548405    20.548405   -2781.3135   -2325.7469   -3688.0772   -2330.1165    -3302.206    401.52101 
    3470  20.541214212544197437    20.541214    20.541214   -571.43343   -19.096025   -1177.8054   -517.39885   -3303.0784    415.55513 
    3480  20.533901087826798459    20.533901    20.533901    1500.8526    1998.2234    1331.0649    1173.2697   -3303.5215    423.13931 
    3490  20.527345872480275091    20.527346    20.527346    3354.7799    3663.7166    3607.1871    2793.4362    -3303.667    426.26846 
    3500  20.522317434188614982    20.522317    20.522317    4886.3268    4917.7651    5402.2963    4338.9189   -3303.7936    429.16392 
    3510  20.519430762089939435    20.519431    20.519431    5928.5216    5672.3186     6479.182    5634.0642   -3304.1016    434.80829 
    3520  20.519082178261196958    20.519082    20.519082    6288.9932    5830.4396    6676.3956    6360.1445   -3304.5232    442.05301 
    3530  20.521375720248201446    20.521376    20.521376    5818.5083    5307.5279    5934.4755    6213.5214   -3304.7683    446.36963 
    3540  20.526067910092550051    20.526068    20.526068    4485.2475    4087.9538    4298.6714    5069.1174   -3304.5591    443.51507 
    3550  20.532560735567301435    20.532561    20.532561    2436.3799    2277.6244    1949.8412    3081.6742   -3303.8108    432.30975 
    3560  20.539969197031606285    20.539969    20.539969    26.399989    148.87577   -732.26715    662.59135    -3302.669    415.14433 
    3570  20.547270562889551115    20.547271    20.547271   -2281.7455   -1902.1452   -3225.0857   -1718.0055   -3301.4875    397.55092 
    3580  20.553498957657705404    20.553499    20.553499   -4048.5084   -3457.0356   -5002.5992   -3685.8903   -3300.7369    386.75834 
    3590  20.557927217591331015    20.557927    20.557927   -5010.1985   -4264.8002   -5756.1677   -5009.6276   -3300.7749    388.18823 
    3600  20.560174812643708719    20.560175    20.560175   -5157.0208   -4345.9165   -5529.1173   -5596.0286   -3301.5614    401.12748 
    3610  20.560207780262956589    20.560208    20.560208   -4709.3642   -3968.8394   -4660.9587   -5498.2946   -3302.6142     418.0805 
    3620  20.558244221311557709    20.558244    20.558244   -3971.7402   -3456.4099   -3585.6715   -4873.1392   -3303.3471    429.99258 
    3630  20.554626641028502121    20.554627    20.554627   -3152.6305   -2951.2401   -2604.4695   -3902.1817   -3303.4656    432.33892 
    3640  20.549732189977206076    20.549732    20.549732   -2306.3971   -2387.9401   -1789.7443   -2741.5068   -3303.0936    427.07189 
    3650  20.543947259815048767    20.543947    20.543947   -1365.7752   -1589.9253   -1019.3303   -1488.0701   -3302.6182     420.2225 
    3660  20.537693274698622048    20.537693    20.537693   -210.52753   -394.97753   -87.043969    -149.5611   -3302.3829    417.15248 
    3670  20.531472316552402901    20.531472    20.531472    1198.6988    1164.3889    1127.0548    1304.6528   -3302.4729    419.21771 
    3680  20.525873905969504563    20.525874    20.525874    2631.1832     2719.735    2447.7925     2726.022   -3302.6935    423.40819 
    3690  20.521476985229227807    20.521477    20.521477    3635.3206    3730.3495    3440.8294    3734.7829   -3302.7021    424.35403 
    3700  20.518671818061577028    20.518672    20.518672    3878.3082    3876.4262    3785.8767    3972.6217   -3302.2187    417.62921 
    3710  20.517536532263953575    20.517537    20.517537    3482.2916    3351.4232    3626.2704    3469.1811   -3301.2238    402.88247 
    3720  20.517890392118772525     20.51789     20.51789    2896.1469    2680.0874    3356.0483    2652.3049   -3300.0589    385.41498 
    3730  20.519472869670330795    20.519473    20.519473    2486.6466     2288.005    3178.6899     1993.245   -3299.3395    374.79698 
    3740  20.522093236028595697    20.522093    20.522093    2349.3031    2278.4904    3021.0531    1748.3659   -3299.6461    380.05413 
    3750  20.525672784029239892    20.525673    20.525673    2377.2086    2467.1607    2719.2006    1945.2645   -3301.1076    403.21068 
    3760  20.530200168148354578      20.5302      20.5302    2343.7866    2525.4365    2141.9806    2363.9427   -3303.1852    435.93211 
    3770  20.535636557809269220    20.535637    20.535637     1976.295    2163.6296    1235.5884     2529.667   -3304.9512    463.85497 
    3780  20.541803880584158293    20.541804    20.541804    1063.7662    1216.9416    24.467522    1949.8896     -3305.67    475.59996 
    3790  20.548300511359745002    20.548301    20.548301   -434.55679   -340.06238   -1418.2469    454.63886   -3305.1419    468.10272 
    3800  20.554489809402078038     20.55449     20.55449   -2317.1453   -2320.2134   -2967.0781   -1664.1444   -3303.6663    446.01695 
    3810  20.559588682278018723    20.559589    20.559589   -4162.7119   -4279.4489   -4406.3636   -3802.3232    -3301.887    419.28118 
    3820  20.562845062487205894    20.562845    20.562845   -5474.9418   -5659.0591   -5408.7295   -5357.0367   -3300.5757     399.7556 
    3830  20.563742047711137673    20.563742    20.563742   -5910.7932   -6109.6972   -5651.8226   -5970.8599   -3300.2583    395.48781 
    3840  20.562135219861730207    20.562135    20.562135   -5449.0436   -5658.6016   -5057.5647   -5630.9646   -3300.8867    405.71299 
    3850  20.558256139984326438    20.558256    20.558256   -4367.4252   -4588.9548   -3908.3905   -4604.9303   -3301.9035    421.85954 
    3860  20.552595498766656590    20.552595    20.552595   -3013.8258   -3194.2317   -2617.7516    -3229.494    -3302.636    433.60233 
    3870  20.545755328518627181    20.545755    20.545755    -1631.134   -1711.6579   -1431.3061    -1750.438   -3302.6624    434.47034 
    3880  20.538344305597021844    20.538344    20.538344   -304.28256   -313.19634   -330.01963   -269.63171   -3302.0058    424.85145 
    3890  20.530940099464693560     20.53094     20.53094     1021.354    982.48527    867.75728    1213.8195   -3301.1364     412.0354 
    3900  20.524108746622307109    20.524109    20.524109    2427.5792    2265.1522    2291.7313    2725.8541   -3300.6726    405.60104 
    3910  20.518434479935621084    20.518434    20.518434    3884.8123    3555.0231    3866.3473    4233.0664   -3300.9318     410.4447 
    3920  20.514503345133125123    20.514503    20.514503    5165.3417    4674.3438    5298.7664    5522.9148   -3301.7385    423.79017 
    3930  20.512812248282774163    20.512812    20.512812    5955.8205    5345.4462    6237.4634    6284.5518   -3302.6371    438.47827 
    3940  20.513646834513480144    20.513647    20.513647      6048.44    5404.2941    6409.8491    6331.1769   -3303.2031    447.85203 
    3950  20.517000319302972855       20.517       20.517    5398.6538    4863.5723    5703.0046    5629.3845   -3303.2129     448.4372 
    3960  20.522559080389154218    20.522559    20.522559    4113.3715    3855.5919    4245.8983    4238.6241   -3302.7464    441.54214 
    3970  20.529751122780488970    20.529751    20.529751    2427.5046    2534.9661    2392.5833    2354.9642   -3302.1782    433.09082 
    3980  20.537842774850233241    20.537843    20.537843    563.72491    950.57584    489.74935    250.84954   -3301.8965     429.2077 
    3990  20.546031754271837144    20.546032    20.546032   -1350.8715   -903.47584   -1307.9215   -1841.2172   -3301.9413    430.56617 
    4000  20.553502472614290753    20.553502    20.553502   -3258.3829   -2984.6248   -2997.8914   -3792.6323   -3301.9991    432.30007 
    4010  20.559458211695563534    20.559458    20.559458   -5017.8314   -5074.7171    -4537.288   -5441.4892    -3301.751    429.38245 
    4020  20.563183211206066403    20.563183    20.563183   -6365.6844   -6776.3602   -5815.6409   -6505.0521     -3301.13    420.63755 
    4030  20.564152350221775123    20.564152    20.564152   -6989.6148   -7616.8977   -6642.8665   -6709.0802   -3300.3483    409.20706 
    4040  20.562159619660871357     20.56216     20.56216     -6610.24   -7202.4759   -6698.6054   -5929.6388   -3299.8255    401.53326 
    4050  20.557426254921537634    20.557426    20.557426   -5136.8394   -5465.3907   -5699.5451   -4245.5825   -3299.9924    404.37192 
    4060  20.550626145722212357    20.550626    20.550626   -2796.3214    -2781.432   -3672.2853   -1935.2471   -3300.9876    420.07753 
    4070  20.542779131291986516    20.542779    20.542779   -110.64402    166.64049   -1055.4078    556.83519   -3302.5076    444.13837 
    4080  20.535026155948450821    20.535026    20.535026     2287.739    2661.8226    1460.2768    2741.1177   -3303.9659    467.52313 
    4090  20.528366681916157432    20.528367    20.528367    3921.3254    4220.0547    3274.9061    4269.0155   -3304.7746    481.00838 
    4100  20.523464026305354935    20.523464    20.523464    4599.0987    4691.0156    4122.2637    4984.0169   -3304.5622    478.67045 
    4110  20.520572465905644322    20.520572    20.520572    4403.0022    4232.7692    4091.3619    4884.8755   -3303.3301    460.40595 
    4120  20.519579898172136012     20.51958     20.51958    3624.0535    3235.5683    3486.8349    4149.7573   -3301.5161    432.97384 
    4130  20.520132696661626426    20.520133    20.520133     2600.098    2120.6348    2603.4402    3076.2191   -3299.8323    407.45067 
    4140  20.521778400300895839    20.521778    20.521778    1600.6708    1166.1431    1629.9109    2005.9584   -3298.8919    393.40007 
    4150  20.524082071963881901    20.524082    20.524082    836.08855    527.89685    711.64059    1268.7282    -3298.916    394.30226 
    4160  20.526712847339549484    20.526713    20.526713    421.32904     278.0212   -14.225672    1000.1916   -3299.6824    406.73983 
    4170  20.529488476827093990    20.529488    20.529488    320.90299    344.06284   -435.21446    1053.8606   -3300.6731    422.68637 
    4180  20.532357073020584437    20.532357    20.532357    337.68201    491.50587    -555.1089    1076.6491   -3301.3762    434.19803 
    4190  20.535317135061866622    20.535317    20.535317    274.03678    539.16593   -504.83605    787.78047   -3301.5998    438.29237 
    4200  20.538337907266928539    20.538338    20.538338    59.223576    442.60157   -445.89908    180.96823   -3301.5198    437.68411 
    4210  20.541327258243427423    20.541327    20.541327   -305.36172    154.76066   -492.75266   -578.09315   -3301.4261    436.87021 
    4220  20.544132342768573807    20.544132    20.544132   -780.47023   -364.26521   -698.78652    -1278.359   -3301.4768    438.30695 
    4230  20.546556450689351436    20.546556    20.546556    -1307.065   -1069.8596   -1115.8481   -1735.4874   -3301.6261    441.28501 
    4240  20.548384410078742945    20.548384    20.548384   -1823.9406    -1842.263   -1753.7937    -1875.765   -3301.6892    442.93447 
    4250  20.549408488174339737    20.549408    20.549408   -2282.7901    -2523.077   -2507.8607   -1817.4326   -3301.4821    440.38366 
    4260  20.549450302966874915     20.54945     20.54945   -2600.6398   -2916.9046    -3173.121   -1711.8939    -3301.024    433.91265 
    4270  20.548398236396927530    20.548398    20.548398   -2609.9053   -2836.9369   -3469.3402   -1523.4388   -3300.6398    428.54357 
    4280  20.546273630340326832    20.546274    20.546274   -2158.3137   -2217.9159   -3130.5893   -1126.4358   -3300.7394    430.64171 
    4290  20.543289133291761317    20.543289    20.543289   -1225.4882   -1147.7774    -2047.705   -480.98216   -3301.4491    442.20311 
    4300  20.539851505982106517    20.539852    20.539852    25.050346    152.73397   -386.57506    308.99213   -3302.4598     458.4861 
    4310  20.536489142820677500    20.536489    20.536489    1267.2845    1335.6783    1439.9944    1026.1808   -3303.2001    470.64707 
    4320  20.533711328645679828    20.533711    20.533711    2040.2277    1921.2121    2841.8131    1357.6579   -3303.1652    470.82838 
    4330  20.531822362164596996    20.531822    20.531822    2011.0749    1626.7999    3316.6842    1089.7406   -3302.2209    456.88971 
    4340  20.530799428983936394    20.530799    20.530799     1348.166    751.00103    2868.7905    424.70649   -3300.7533    434.78704 
    4350  20.530366049395929906    20.530366    20.530366    606.33767   -54.152194    1985.5041    -112.3389   -3299.5137    416.17136 
    4360  20.530214887821948366    20.530215    20.530215    279.44298   -276.68539    1216.1902   -101.17588   -3299.1647    411.34087 
    4370  20.530208162323795307    20.530208    20.530208    523.21973    191.33796    869.25839    509.06284   -3299.8947    423.23908 
    4380  20.530438937169073199    20.530439    20.530439    1109.0855    1022.7307    924.69106    1379.8347   -3301.3448    446.32494 
    4390  20.531135391471821094    20.531135    20.531135    1576.5055    1683.5835    1066.5021    1979.4308   -3302.7855    469.28607 
    4400  20.532472403968192509    20.532472    20.532472    1494.6407    1742.5086     844.1481    1897.2653   -3303.4694    480.52481 
    4410  20.534399960025393028      20.5344      20.5344    745.40739    1109.5618    35.720397      1090.94    -3303.038    474.47279 
    4420  20.536601017658433932    20.536601    20.536601   -367.30618    72.545531   -1079.5957   -94.868346   -3301.7207    454.68998 
    4430  20.538616284464431772    20.538616    20.538616   -1352.5248   -939.22372   -1963.4407     -1154.91   -3300.2016    431.77136 
    4440  20.540042673450130906    20.540043    20.540043   -1864.6076    -1591.877   -2305.4733   -1696.4727   -3299.2201    417.16603 
    4450  20.540673673940311517    20.540674    20.540674   -1863.7692   -1771.5438    -2190.043   -1629.7208   -3299.1259    416.29062 
    4460  20.540515260072091053    20.540515    20.540515   -1563.5023   -1601.6684   -1893.6538   -1195.1847   -3299.7068    425.87156 
    4470  20.539699064287539443    20.539699    20.539699   -1225.1758   -1274.7262    -1659.331   -741.47011   -3300.4064    437.29797 
    4480  20.538375395850621885    20.538375    20.538375   -975.99813   -882.10309     -1572.08   -473.81129   -3300.6912    442.30758 
    4490  20.536660167317691617     20.53666     20.53666   -781.61198    -453.4632   -1503.0764   -388.29635    -3300.361    437.78539 
    4500  20.534646223080464722    20.534646    20.534646   -540.73326   -46.118441   -1223.1854   -352.89599    -3299.696    428.06727 
    4510  20.532445176222704930    20.532445    20.532445    -132.7039    346.20925    -556.1231   -188.19785   -3299.2944    422.42842 
    4520  20.530236817011534356    20.530237    20.530237    534.76263     857.4296     519.8821    226.97619   -3299.6263    428.17196 
    4530  20.528303682319130274    20.528304    20.528304    1431.7157    1588.6954    1815.6124    890.83927   -3300.6774    445.09716 
    4540  20.527013925840542186    20.527014    20.527014    2335.7379    2413.2516    2937.0229    1656.9391   -3301.9752    465.87872 
    4550  20.526725881823924880    20.526726    20.526726    2854.9765    2945.7104     3391.231    2227.9882    -3302.891    480.74144 
    4560  20.527630780773318264    20.527631    20.527631    2652.8458     2783.569    2868.9063    2306.0621   -3302.9697    482.59456 
    4570  20.529622625455367313    20.529623    20.529623      1708.58    1841.5319    1502.1316    1782.0764   -3302.1287    470.15735 
    4580  20.532294233442584641    20.532294    20.532294    327.99756    417.29646   -213.77062    780.46685   -3300.7264    449.01392 
    4590  20.535064985045060837    20.535065    20.535065   -1036.5519   -1008.7568   -1709.4507   -391.44804   -3299.4215    429.39455 
    4600  20.537368600702951227    20.537369    20.537369   -1964.7761   -2014.6138   -2527.5915   -1352.1229   -3298.8054    420.46322 
    4610  20.538827170573988212    20.538827    20.538827   -2207.2333   -2377.4728   -2463.8421   -1780.3851   -3299.0458    424.80205 
    4620  20.539349406929417796    20.539349    20.539349   -1822.9755    -2158.902   -1701.5057    -1608.519   -3299.8196    437.39758 
    4630  20.539101895638303574    20.539102    20.539102   -1143.0554   -1652.1769   -696.23317   -1080.7561   -3300.5871    449.89835 
    4640  20.538373734126043502    20.538374    20.538374   -510.23662   -1153.0129    130.68367   -508.38059   -3300.9386    455.96176 
    4650  20.537436925901708662    20.537437    20.537437   -66.130977   -775.55151    594.82486   -17.666285   -3300.7768    454.07578 
    4660  20.536484143264679858    20.536484    20.536484    207.13675   -497.87336    719.84689    399.43672   -3300.3488    448.06253 
    4670  20.535635453868845701    20.535635    20.535635    411.62611   -204.01428    647.87201    791.02059    -3300.123    445.17634 
    4680  20.534979094292744151    20.534979    20.534979    632.75609    210.33591     535.1214     1152.811   -3300.4482    450.83048 
    4690  20.534604728524534778    20.534605    20.534605    836.83626     697.5885    465.00718    1347.9131   -3301.2138     463.3192 
    4700  20.534588720277767493    20.534589    20.534589    864.04979    1050.9571    384.33516    1156.8572   -3301.8895    474.42526 
    4710  20.534931390541405705    20.534931    20.534931    566.08702    1020.7539    176.98385    500.52334   -3301.9366    475.79079 
    4720  20.535501631874684136    20.535502    20.535502   -20.553429    511.11267   -163.91494   -408.85802   -3301.1891    464.83173 
    4730  20.536054732974701409    20.536055    20.536055    -667.2963   -299.45121   -483.14915   -1219.2885    -3299.952    446.26728 
    4740  20.536325915027916267    20.536326    20.536326   -1095.7513   -1052.6512   -572.70284   -1661.8999   -3298.8645    429.99708 
    4750  20.536145591450484460    20.536146    20.536146   -1089.5346   -1382.3159     -314.571   -1571.7168   -3298.5871    426.26831 
    4760  20.535525383959658541    20.535525    20.535525   -602.47447   -1095.2718    220.91642   -933.06799    -3299.401    439.45518 
    4770  20.534674400606590439    20.534674    20.534674    224.91798   -259.75114    863.19966    71.305433   -3300.9578    464.18936 
    4780  20.533936921076172410    20.533937    20.533937    1077.6298    790.37456    1394.1308    1048.3841   -3302.4354    487.73381 
    4790  20.533658134505664350    20.533658    20.533658    1534.2616    1556.0837    1522.5369    1524.1644   -3303.0362    497.70534 
    4800  20.534015384502588120    20.534015    20.534015    1342.6423    1700.2895    1070.4718    1257.1655   -3302.4533    489.31429 
    4810  20.534920924750121429    20.534921    20.534921    599.36394    1275.6859    163.83045    358.57549   -3300.9978     467.3674 
    4820  20.536061517928143161    20.536062    20.536062   -380.14548    555.09892   -865.71879   -829.81658   -3299.3897    443.03011 
    4830  20.537030743417815870    20.537031    20.537031   -1215.9577   -140.97929   -1638.6743   -1868.2194    -3298.366    427.73648 
    4840  20.537486006316594711    20.537486    20.537486   -1629.8646   -545.16551   -1918.4389   -2425.9894   -3298.3061    427.37069 
    4850  20.537261817368381855    20.537262    20.537262   -1553.0573   -566.01065   -1701.4575   -2391.7037   -3299.0486    439.43985 
    4860  20.536396978129836555    20.536397    20.536397   -1113.4016   -313.40231    -1178.366   -1848.4366   -3299.9906    454.61283 
    4870  20.535079281255828931    20.535079    20.535079   -563.03263   -8.5434361   -673.72947    -1006.825   -3300.4789    462.77375 
    4880  20.533542451848422417    20.533542    20.533542     -100.287    200.79554   -414.14293   -87.513619   -3300.2812     460.3142 
    4890  20.531985639622469364    20.531986    20.531986     241.6828    369.92304   -346.21665      701.342   -3299.7209    452.23361 
    4900  20.530556091803660479    20.530556    20.530556    516.95657    610.55104   -246.57496    1186.8936   -3299.3304    446.77759 
    4910  20.529372219522720400    20.529372    20.529372    820.80852    985.07165    104.02318    1373.3307   -3299.3847    448.21395 
    4920  20.528559717772694171     20.52856     20.52856     1162.629    1422.2166    705.48768    1360.1826   -3299.7452    454.40283 
    4930  20.528252971426866225    20.528253    20.528253    1408.7471    1665.8543    1328.1188    1232.2681   -3300.0581    459.85644 
    4940  20.528541656544526006    20.528542    20.528542    1365.9897    1431.9844    1645.5933    1020.3913   -3300.0115    459.73307 
    4950  20.529394972831507715    20.529395    20.529395    940.76346    698.87695    1394.2792    729.13427   -3299.4871    452.18948 
    4960  20.530628932901652917    20.530629    20.530629     280.7106    -214.2752    604.05133    452.35568   -3298.6693    440.09154 
    4970  20.531971076319052827    20.531971    20.531971   -247.04314   -823.77949   -306.58972    389.23981    -3298.057    431.17625 
    4980  20.533207430435187035    20.533207    20.533207   -327.14831   -785.85031   -832.67303     637.0784    -3298.221    434.29728 
    4990  20.534306121245073484    20.534306    20.534306     55.94204   -114.25936   -776.83037    1058.9158   -3299.4123    453.35325 
    5000  20.535423609374362286    20.535424    20.535424    661.77511    878.11465   -309.73235     1416.943   -3301.3033    483.27797 
    5010  20.536804713232442055    20.536805    20.536805    1127.9958    1695.4163    217.32096    1471.2503   -3303.0736    511.35456 
    5020  20.538629262048786472    20.538629    20.538629    1051.6509    1807.2271    417.75648    929.96903   -3303.8221    523.60158 
    5030  20.540849102717544383    20.540849    20.540849    187.16849    929.12025    1.6492009   -369.26399   -3303.0752    512.66927 
    5040  20.543094175060183204    20.543094    20.543094   -1354.3119   -818.04113   -1072.2337   -2172.6608   -3301.0843    482.45247 
    5050  20.544723940565813081    20.544724    20.544724   -3108.9172    -2932.189   -2503.3144   -3891.2481    -3298.693    446.01194 
    5060  20.545024209986436858    20.545024    20.545024   -4402.9813   -4642.3821   -3696.5887    -4869.973   -3296.8873    418.57638 
    5070  20.543485084934673068    20.543485    20.543485   -4640.2135   -5214.9628   -4083.1942   -4622.4835   -3296.3321    410.40423 
    5080  20.540043140307119529    20.540043    20.540043   -3580.2628    -4312.511   -3433.7414   -2994.5359   -3297.0903     422.5122 
    5090  20.535169494884595309    20.535169    20.535169   -1513.6693   -2198.6454   -1958.5238   -383.83861   -3298.6421    446.97165 
    5100  20.529742979302803008    20.529743    20.529743    910.48226    429.09471   -64.573577    2366.9256   -3300.2006    471.70699 
    5110  20.524778906445732218    20.524779    20.524779    3033.2358    2776.9809    1869.9362    4452.7903   -3301.1589     487.3046 
    5120  20.521155349776620369    20.521155    20.521155    4430.7781    4304.5356    3525.9066    5461.8919   -3301.3859    491.62269 
    5130  20.519437896697468204    20.519438    20.519438    4963.9677     4902.985    4632.3692     5356.549   -3301.1638    488.90692 
    5140  20.519825983902372002    20.519826    20.519826    4728.3558    4801.9994    5000.3269    4382.7412   -3300.8518    484.66258 
    5150  20.522195730475729647    20.522196    20.522196    3932.9732    4271.7344    4574.8718    2952.3133   -3300.6242    481.61522 
    5160  20.526187776729024392    20.526188    20.526188    2766.7963    3409.2235    3467.2051    1423.9603   -3300.4681    479.63099 
    5170  20.531287974364506255    20.531288    20.531288    1331.3213    2164.3223    1867.3763   -37.734676   -3300.2861    477.27387 
    5180  20.536872964680959797    20.536873    20.536873   -307.39762    499.17296   -16.869747   -1404.4961   -3299.9606    472.77855 
    5190  20.542244716352517031    20.542245    20.542245   -1981.3516   -1425.5676   -1894.9276   -2623.5597   -3299.4379    465.32904 
    5200  20.546702522409745484    20.546703    20.546703   -3437.5785   -3227.4342   -3450.7289   -3634.5723   -3298.8377    456.74415 
    5210  20.549646841509094486    20.549647    20.549647   -4447.9882   -4482.5312   -4468.8408   -4392.5926    -3298.423    451.01983 
    5220  20.550675159711364159    20.550675    20.550675   -4842.8316   -4899.3946   -4873.4792   -4755.6209   -3298.3848    451.04325 
    5230  20.549651762630993801    20.549652    20.549652   -4531.3517   -4375.8704    -4702.156   -4516.0288   -3298.6682    455.94032 
    5240  20.546739782075420067     20.54674     20.54674    -3569.992   -3072.2144   -4028.8625   -3608.8991   -3299.0481    462.25812 
    5250  20.542370265065954982     20.54237     20.54237   -2212.0214   -1449.2602   -2944.2698   -2242.5342   -3299.3328    467.09803 
    5260  20.537131837445500082    20.537132    20.537132   -826.87113   -55.462814   -1624.1518   -800.99875   -3299.4468    469.35403 
    5270  20.531619726566233908     20.53162     20.53162    348.79675    878.79732   -274.08459    441.67752   -3299.3928    469.08877 
    5280  20.526336797511703480    20.526337    20.526337    1270.0929    1510.5154    910.01048    1389.7529   -3299.2248    467.12096 
    5290  20.521671312427972822    20.521671    20.521671    1967.3679    2101.4643    1765.2172    2035.4223   -3299.0597    465.23598 
    5300  20.517910046375170907     20.51791     20.51791    2481.7871    2752.7734    2263.6612    2428.9266   -3299.0237    465.35817 
    5310  20.515256592210384667    20.515257    20.515257    2835.1824    3334.8244    2507.5539    2663.1689   -3299.1099    467.35859 
    5320  20.513842470291567821    20.513842    20.513842    3026.1834    3652.2409    2577.4742    2848.8351    -3299.131    468.31675 
    5330  20.513726862351539637    20.513727    20.513727    3005.5988    3575.9745    2489.4686    2951.3531   -3298.8572    464.65495 
    5340  20.514878535706586149    20.514879    20.514879    2723.2747    3073.0832    2286.6979    2810.0431    -3298.263    455.97621 
    5350  20.517162078163231342    20.517162    20.517162    2271.3332    2287.0621    2092.7878    2434.1495   -3297.6416    446.83908 
    5360  20.520377440038245709    20.520377    20.520377    1875.2208    1530.0767    2045.1236    2050.4622   -3297.4544    444.41407 
    5370  20.524349833866633475     20.52435     20.52435    1713.3784    1097.3862     2191.935    1850.8141   -3298.0435    454.02367 
    5380  20.528997563044981689    20.528998    20.528998    1718.3461     999.4545    2390.1964    1765.3874   -3299.4072    475.64827 
    5390  20.534302597527080536    20.534303    20.534303    1592.5549    911.26931    2286.5614     1579.834   -3301.1259    502.79268 
    5400  20.540188694394029056    20.540189    20.540189    968.33416    368.72501    1451.4904    1084.7871   -3302.4854    524.40565 
    5410  20.546372518838627030    20.546373    20.546373   -396.92877   -926.82286   -344.28195    80.318493    -3302.786    529.68247 
    5420  20.552271335177636047    20.552271    20.552271    -2396.086   -2819.1812   -2891.8477   -1477.2292   -3301.7226    513.92504 
    5430  20.557051780831407939    20.557052    20.557052   -4591.6847   -4799.9173    -5563.589   -3411.5478   -3299.6165    482.07427 
    5440  20.559814237699391981    20.559814    20.559814   -6386.4936   -6255.8535   -7535.9547   -5367.6724   -3297.2977    446.86651 
    5450  20.559844017187536735    20.559844    20.559844    -7204.008   -6654.4637   -8120.2669   -6837.2932   -3295.7138    422.83308 
    5460  20.556846684845076823    20.556847    20.556847   -6740.6756   -5823.9099   -7066.1564   -7331.9604   -3295.4644      419.216 
    5470  20.551070026333697172     20.55107     20.55107   -5024.8429   -3959.1396   -4596.7472   -6518.6419   -3296.5676    436.41843 
    5480  20.543284095186493232    20.543284    20.543284   -2360.0434   -1429.1768   -1284.2636   -4366.6898    -3298.556    467.44341 
    5490  20.534642059748037468    20.534642    20.534642    717.71866    1308.9682    2098.6795   -1254.4917   -3300.7065     501.2885 
    5500  20.526444008797575691    20.526444    20.526444    3515.3174     3721.796    4749.2542    2074.9019   -3302.2832    526.57455 
[...]
    8640  20.517927921847075368    20.517928    20.517928    2669.9686    2498.2865    2460.1777    3051.4415   -3295.6224    571.80544 
    8650  20.521907264138675941    20.521907    20.521907      1582.34    1560.5098    1529.4188    1657.0914   -3295.0871    563.77328 
    8660  20.526495975309302366    20.526496    20.526496    411.39658    579.06331    570.16268    84.963745   -3294.5895    556.36339 
    8670  20.531184893657865587    20.531185    20.531185   -921.14885   -510.12028   -593.53775   -1659.7885   -3294.1141     549.3627 
    8680  20.535408965095292899    20.535409    20.535409   -2345.5784   -1783.7331   -1889.9279   -3363.0742   -3293.6648    542.83164 
    8690  20.538578212124754430    20.538578    20.538578    -3616.444   -3148.8813   -3036.4852   -4663.9654   -3293.2926    537.52653 
    8700  20.540181804775794916    20.540182    20.540182   -4359.5389   -4260.0166   -3655.1563   -5163.4438   -3293.0995    534.96083 
    8710  20.539940462146837774     20.53994     20.53994   -4245.2615   -4668.5945   -3454.8327   -4612.3573   -3293.2426    537.52024 
    8720  20.537931118203971437    20.537931    20.537931   -3318.7166   -4171.7966    -2515.843   -3268.5103   -3293.8195     546.7272 
    8730  20.534558902269793634    20.534559    20.534559   -2060.4686   -2997.0696   -1337.5662   -1846.7701   -3294.6985    560.60851 
    8740  20.530363631628418375    20.530364    20.530364   -952.52899   -1565.0002   -374.03151   -918.55529   -3295.5451     574.0288 
    8750  20.525824801428484534    20.525825    20.525825   -134.63688   -208.10458    228.85966   -424.66572   -3295.9816    581.14046 
    8760  20.521299130029149183    20.521299    20.521299    485.25322    873.81753    508.37532     73.56682    -3295.708     577.2797 
    8770  20.517049774612182489     20.51705     20.51705    931.24661    1520.5658    503.30696    769.86704   -3294.7117    562.23571 
    8780  20.513260771384835834    20.513261    20.513261    1207.2872    1740.3064     291.7692    1589.7861   -3293.3903     542.1523 
    8790  20.510044311597834366    20.510044    20.510044    1413.0907    1760.1206    20.985123    2458.1664   -3292.3414    526.28352 
    8800  20.507484625029725578    20.507485    20.507485    1739.1522    1955.3873   -65.466453    3327.5357   -3292.0242    521.75018 
    8810  20.505714536947152737    20.505715    20.505715    2345.2242    2585.1621    302.11288    4148.3977    -3292.527    529.92632 
    8820  20.504975820062576020    20.504976    20.504976    3180.8156    3515.0303    1162.3016    4865.1148   -3293.5554    546.24209 
    8830  20.505592489629290043    20.505592    20.505592    3900.9072     4261.275    2150.9269    5290.5196   -3294.6323    563.27109 
    8840  20.507833092135399511    20.507833    20.507833    4100.9557    4377.7138    2780.5495    5144.6039    -3295.345    574.57954 
    8850  20.511750267474880616     20.51175     20.51175    3578.8897    3710.5618    2753.6222    4272.4852    -3295.505    577.24853 
    8860  20.517100319966324662      20.5171      20.5171    2391.4303    2351.7685    2028.0156    2794.5067   -3295.1967    572.63988 
    8870  20.523369055168966923    20.523369    20.523369    812.79205    590.26178    749.56321    1098.5512   -3294.6841     564.9305 
    8880  20.529887675273844394    20.529888    20.529888   -769.25535   -1191.1519   -834.02396   -282.59017   -3294.2095    557.92286 
    8890  20.535988335103105840    20.535988    20.535988   -2130.3653    -2770.621   -2536.0599   -1084.4151   -3293.8742    553.18138 
    8900  20.541099358987651158    20.541099    20.541099   -3235.5842   -4025.0587   -4196.4846   -1485.2093   -3293.7008    551.00379 
    8910  20.544763437891560898    20.544763    20.544763   -4123.5033   -4875.4137   -5630.6799   -1864.4163    -3293.657     550.8334 
    8920  20.546623580631138140    20.546624    20.546624   -4826.0071   -5326.3794   -6676.6614   -2474.9805    -3293.594    550.29973 
    8930  20.546411028451899483    20.546411    20.546411   -5277.6911   -5408.6965   -7170.2304   -3254.1463   -3293.3348    546.61162 
    8940  20.543976026649922062    20.543976    20.543976   -5235.3218    -5030.864   -6897.8782   -3777.2231   -3292.9011    540.07637 
    8950  20.539383665621798514    20.539384    20.539384    -4447.532   -4057.5005   -5775.0638   -3510.0317   -3292.5771    535.12322 
    8960  20.533007506071509596    20.533008    20.533008   -2887.7689   -2534.9146   -3930.1898   -2198.2024   -3292.6716    536.64565 
    8970  20.525536413941189551    20.525536    20.525536    -738.3583    -651.6123   -1549.0138     -14.4488   -3293.2589    545.93099 
    8980  20.517890663166788556    20.517891    20.517891    1654.7661    1344.5834    1087.1962    2532.5188   -3294.1803    560.61502 
    8990  20.511072575427395037    20.511073    20.511073    3866.5017    3196.8092    3572.3167    4830.3793   -3295.1822    576.74198 
    9000  20.505987242848647156    20.505987    20.505987    5465.2491    4658.6722    5400.2931     6336.782   -3295.9541    589.36912 
    9010  20.503265579984265798    20.503266    20.503266    6101.8656    5496.3557     6116.382    6692.8591   -3296.1717    593.30592 
    9020  20.503133719541388302    20.503134    20.503134    5746.8981    5601.4584    5707.2391    5931.9969   -3295.6617    585.77225 
    9030  20.505408642535208230    20.505409    20.505409    4684.3514    5048.2024    4519.6393    4485.2124   -3294.5467    568.69467 
    9040  20.509614851847597805    20.509615    20.509615    3254.3608    3994.9635    2853.9547    2914.1641   -3293.2948    549.42378 
    9050  20.515127631034665967    20.515128    20.515128    1738.6022    2643.4643    956.25627     1616.086   -3292.5468    537.98989 
    9060  20.521293993950184387    20.521294    20.521294    379.57812      1211.76   -799.89244    726.86677   -3292.7105    540.77362 
    9070  20.527537618996628765    20.527538    20.527538   -575.20705   -25.279895   -1943.2799    242.93868   -3293.6699    555.98764 
    9080  20.533453914150634034    20.533454    20.533454   -1089.5371   -984.88916   -2286.3159    2.5936649   -3294.9151    575.69463 
    9090  20.538817340458834337    20.538817    20.538817   -1485.4879   -1924.5054   -2118.4864   -413.47203   -3295.9093    591.54115 
    9100  20.543454160090774963    20.543454    20.543454   -2141.1249   -3054.8146   -1966.6643   -1401.8957   -3296.2982    598.02185 
    9110  20.547092327713055937    20.547092    20.547092   -3174.2726   -4323.3076   -2269.9316   -2929.5788   -3295.9428    592.97348 
    9120  20.549316309219705090    20.549316    20.549316   -4351.6992   -5471.8556   -3135.2767   -4447.9653   -3294.9902    578.64348 
    9130  20.549663596486581696    20.549664    20.549664   -5241.4454   -6105.8426   -4275.2285   -5343.2651   -3293.8704    561.62452 
    9140  20.547797976423733957    20.547798    20.547798   -5530.0963   -5973.5391   -5226.6623   -5390.0876   -3293.0007    548.32955 
    9150  20.543640229440178757     20.54364     20.54364   -5071.0739   -5082.4829   -5455.4689     -4675.27   -3292.5224    540.94893 
    9160  20.537428933871705539    20.537429    20.537429   -3819.1916   -3538.6896   -4519.0373    -3399.848   -3292.3796    538.70179 
    9170  20.529729997174893441     20.52973     20.52973    -1924.138   -1477.2411   -2473.5728      -1821.6   -3292.4949    540.52959 
    9180  20.521361453199993718    20.521361    20.521361     191.7082    739.42014    69.401219   -233.69677   -3292.8062    545.58425 
    9190  20.513218915142573451    20.513219    20.513219    2117.2334     2657.339    2412.5768    1281.7843   -3293.2339    552.65449 
    9200  20.506107345526366714    20.506107    20.506107    3680.1599    4097.0386    4088.8089    2854.6323   -3293.6965    560.40708 
    9210  20.500665672214907431    20.500666    20.500666    4825.5134    5112.4191    4919.0669    4445.0541   -3294.1239    567.64702 
    9220  20.497340702263123546    20.497341    20.497341    5430.1818    5627.4789    4966.3563    5696.7103    -3294.404    572.53191 
    9230  20.496341703675803103    20.496342    20.496342    5335.8022    5394.8143    4411.9276    6200.6646   -3294.3721    572.43522 
    9240  20.497588033251474826    20.497588    20.497588    4573.6483    4413.0725    3471.0261    5836.8463   -3293.9232    565.73068 
    9250  20.500730939135074493    20.500731    20.500731    3436.8782    3031.8686    2450.6059    4828.1601   -3293.1662    554.16648 
    9260  20.505269000823187042    20.505269    20.505269    2199.8651    1558.2256    1550.7052    3490.6645   -3292.4317    542.94287 
    9270  20.510663060550474057    20.510663    20.510663    1027.8263    198.00996    719.80999     2165.659   -3292.0679    537.51246 
    9280  20.516406795151887366    20.516407    20.516407   -2.9066458   -922.82949   -172.87671    1086.9863   -3292.1974     539.7989 
    9290  20.522060054135732088     20.52206     20.52206   -841.06668   -1739.2282     -1049.36    265.38826   -3292.6885    547.76247 
    9300  20.527273190182903306    20.527273    20.527273   -1388.0765   -2118.7446    -1627.661   -417.82398   -3293.3461    558.35994 
    9310  20.531821504747050255    20.531822    20.531822   -1658.2099   -2038.8625   -1792.6469   -1143.1203   -3294.0342    569.44767 
    9320  20.535592276834911729    20.535592    20.535592   -1889.9488   -1798.9321   -1836.6623   -2034.2521   -3294.6359    579.19692 
    9330  20.538493372136656490    20.538493    20.538493   -2262.0606   -1724.7952   -2102.2845   -2959.1021   -3295.0207    585.57768 
    9340  20.540385089640416538    20.540385    20.540385   -2683.9275   -1919.5675   -2539.7661   -3592.4489   -3295.0779     586.8593 
    9350  20.541111208683915379    20.541111    20.541111   -2995.2245   -2349.2655   -2905.7466   -3730.6615   -3294.7601    582.29128 
    9360  20.540561974815233270    20.540562    20.540562    -3119.941   -2869.4225   -3084.1071   -3406.2935   -3294.1329     572.8733 
    9370  20.538710444070392924     20.53871     20.53871   -2952.7633   -3171.7415   -3027.1619   -2659.3863   -3293.4232    562.12136 
    9380  20.535655933318025745    20.535656    20.535656   -2364.9708   -2951.5863    -2643.665   -1499.6609   -3292.9495    554.98992 
    9390  20.531669289964920466    20.531669    20.531669   -1370.5834   -2148.7678   -1888.2364   -74.745921   -3292.8949    554.36185 
    9400  20.527183666357849745    20.527184    20.527184   -132.65483   -879.34287   -882.24306    1363.6214   -3293.1993    559.35016 
    9410  20.522726028257480380    20.522726    20.522726    1144.3219    658.23979    180.77087    2593.9549   -3293.6713    567.01154 
    9420  20.518828735328686008    20.518829    20.518829    2228.6456    2114.2949    1168.5619      3403.08   -3294.1059    574.14868 
    9430  20.515930208294278714     20.51593     20.51593     2848.311    3027.8364    1965.1016    3551.9949   -3294.3638      578.559 
    9440  20.514271022603921324    20.514271    20.514271    2925.3443    3195.1747    2552.4171     3028.441   -3294.4586    580.40853 
    9450  20.513870152521334944     20.51387     20.51387    2682.8164    2876.4839    3001.1358    2170.8294   -3294.4629    580.80626 
    9460  20.514610086418670676     20.51461     20.51461    2315.5918    2358.8277    3243.4909    1344.4567   -3294.3511    579.36142 
    9470  20.516316783078615060    20.516317    20.516317    1840.9354    1704.2065    3056.3152    762.28462   -3294.0772    575.38059 
    9480  20.518771037417163683    20.518771    20.518771    1202.4799    892.36862    2264.4445    450.62662   -3293.7167    570.05124 
    9490  20.521692106360195140    20.521692    20.521692    448.82553   -16.680909    1067.8306    295.32686   -3293.4213    565.74145 
    9500  20.524757880274076882    20.524758    20.524758   -297.33537   -894.61725   -106.63244    109.24359    -3293.297    564.10908 
    9510  20.527653211510628495    20.527653    20.527653   -936.93944   -1583.6179   -962.05542   -265.14498   -3293.3891    565.85638 
    9520  20.530113219576744399    20.530113    20.530113   -1380.3585   -1969.0439   -1362.8645   -809.16714     -3293.69    570.85249 
    9530  20.531957664754500570    20.531958    20.531958   -1603.8192   -2062.1754   -1362.3067   -1386.9756   -3294.0706    577.08566 
    9540  20.533101362390482336    20.533101    20.533101   -1636.5869   -1942.0509   -1141.6233   -1826.0866   -3294.2931    580.85668 
    9550  20.533535136677137700    20.533535    20.533535   -1671.3845   -1871.3133   -1033.7939   -2109.0464    -3294.199    579.70644 
    9560  20.533248894701308984    20.533249    20.533249    -1885.852   -2050.8476   -1258.8505   -2347.8579   -3293.8305    574.28154 
    9570  20.532169483661675713    20.532169    20.532169   -2128.9141   -2320.9489   -1622.4068   -2443.3866   -3293.3104    566.48185 
    9580  20.530217911890979110    20.530218    20.530218   -2113.1933   -2382.6573   -1812.8002   -2144.1224   -3292.7379    557.84212 
    9590  20.527418728046413321    20.527419    20.527419   -1750.2594   -2139.9997    -1686.057   -1424.7214   -3292.2617    550.67706 
    9600  20.523937838140433598    20.523938    20.523938   -1107.1876   -1668.7485   -1162.8619   -489.95243   -3292.0764    548.02534 
    9610  20.520058620945103911    20.520059    20.520059   -223.57416   -953.90153   -234.10671    517.28577   -3292.2317    550.68541 
    9620  20.516160487574047977     20.51616     20.51616      836.455    75.528979    925.94775    1507.8883    -3292.522    555.48709 
    9630  20.512686471521014653    20.512686    20.512686    1916.6427    1378.4782    2034.5471    2336.9027   -3292.7268     559.0157 
    9640  20.510079841593295669     20.51008     20.51008     2846.562    2760.5146      2908.85    2870.3213     -3292.88    561.76479 
    9650  20.508713187750483797    20.508713    20.508713    3477.4159    3906.2769    3430.7247    3095.2461   -3293.1229    565.88163 
    9660  20.508828760696374616    20.508829    20.508829    3719.2572    4530.6304    3514.7898    3112.3515   -3293.4218    570.81014 
    9670  20.510503318276043672    20.510503    20.510503    3544.4751    4495.0917    3157.6095    2980.7242   -3293.6454    574.50467 
    9680  20.513638418602116786    20.513638    20.513638    2961.6339    3811.8727     2384.018    2689.0109   -3293.7552    576.38429 
    9690  20.517965019539133209    20.517965    20.517965    1989.7708    2562.9827    1193.6671    2212.6626   -3293.7396    576.30978 
    9700  20.523058682508992234    20.523059    20.523059    774.37974    996.69486   -230.65618    1557.1005   -3293.5884    574.17843 
    9710  20.528400816016805663    20.528401    20.528401   -451.35609   -530.00308   -1489.3311    665.26586   -3293.3802    571.23607 
    9720  20.533474686165945400    20.533475    20.533475   -1489.6894   -1675.3281   -2291.2864   -502.45366   -3293.3029    570.39308 
    9730  20.537846576498516526    20.537847    20.537847   -2247.4128   -2250.1431   -2691.1137   -1800.9816    -3293.563    574.81984 
    9740  20.541206100088928110    20.541206    20.541206   -2705.4028   -2303.8667   -2918.6139   -2893.7279    -3294.178    584.74799 
    9750  20.543372687836395585    20.543373    20.543373    -2916.106   -2075.8963   -3193.9712   -3478.4504   -3294.8734    595.89615 
    9760  20.544271763231527927    20.544272    20.544272   -2994.5283   -1875.9652   -3673.3215   -3434.2982   -3295.2368    601.85579 
    9770  20.543886686316962908    20.543887    20.543887   -3053.7668   -1891.3439   -4362.2859   -2907.6706   -3294.9831    598.19869 
    9780  20.542211834052473307    20.542212    20.542212   -3130.2524    -2131.148   -4974.1676   -2285.4417   -3294.1218     585.0647 
    9790  20.539241040373674707    20.539241    20.539241    -3091.415   -2512.6581   -4965.1441   -1796.4428   -3292.9657    567.30215 
    9800  20.535022313753351852    20.535022    20.535022   -2693.3936   -2780.5133   -3918.1924   -1381.4751   -3292.0065    552.54724 
    9810  20.529750561038440537    20.529751    20.529751   -1825.9634   -2579.4675   -1943.2088   -955.21402   -3291.6769    547.55281 
    9820  20.523810741552850345    20.523811    20.523811   -554.03436   -1711.9091    476.06178   -426.25573   -3292.1366    554.85484 
    9830  20.517749087709340472    20.517749    20.517749    970.29738   -243.32623    2806.8124    347.40594   -3293.1445    570.76251 
    9840  20.512206790956575730    20.512207    20.512207    2537.6508    1525.8467    4577.4061    1509.6995   -3294.1053    586.05157 
    9850  20.507824734657258858    20.507825    20.507825    3806.1063    3120.5267    5374.9879    2922.8041   -3294.4296    591.53057 
    9860  20.505108430307554812    20.505108    20.505108     4497.639     4165.208    5136.3406    4191.3682   -3293.9928    585.17957 
    9870  20.504315858357081481    20.504316    20.504316    4489.3926    4437.9819    4155.9748     4874.221   -3293.1828    572.94181 
    9880  20.505414523720304487    20.505415    20.505415    3892.3884     3968.494    2940.7612    4767.9101     -3292.52    562.87801 
    9890  20.508132485610822471    20.508132    20.508132    3014.3255    3080.5336    1961.7787    4000.6643    -3292.336    560.17439 
    9900  20.512083928313657566    20.512084    20.512084    2150.2755    2152.7262    1384.3088    2913.7914   -3292.6682    565.46318 
    9910  20.516885249840971284    20.516885    20.516885    1324.4139    1283.4069    919.26285     1770.572   -3293.2444    574.55778 
    9920  20.522165955359014333    20.522166    20.522166    325.38224    307.60532    71.170215     597.3712   -3293.6219    580.62528 
    9930  20.527490295087389427     20.52749     20.52749   -974.85129   -884.83446   -1375.0506   -664.66878     -3293.52    579.33675 
    9940  20.532311850454647129    20.532312    20.532312   -2416.0809   -2210.7596   -3083.6404   -1953.8429   -3292.9959    571.57933 
    9950  20.536038353791894906    20.536038    20.536038   -3654.0282   -3511.0183   -4389.6301   -3061.4363   -3292.3809    562.45051 
    9960  20.538176226137792924    20.538176    20.538176   -4282.5228     -4513.16   -4702.1904    -3632.218    -3292.124    558.83556 
    9970  20.538489674306610766     20.53849     20.53849   -4155.7507    -4930.051   -4011.9336   -3525.2676   -3292.4793    564.62323 
    9980  20.537056059247333906    20.537056    20.537056   -3461.8942   -4633.3411   -2779.4083   -2972.9332   -3293.2656    577.01188 
    9990  20.534190435049662682     20.53419     20.53419    -2470.234   -3669.9742    -1463.037   -2277.6908   -3293.9826    588.29603 
    9999  20.530747912115764109    20.530748    20.530748   -1520.3542   -2413.8769   -443.14536   -1704.0404   -3294.1994    591.82011 
Loop time of 8.51774 on 1 procs for 9999 steps with 500 atoms

Performance: 101.425 ns/day, 0.237 hours/ns, 1173.903 timesteps/s
99.8% CPU use with 1 MPI tasks x no OpenMP threads

MPI task timing breakdown:
Section |  min time  |  avg time  |  max time  |%varavg| %total
---------------------------------------------------------------
Pair    | 8.0267     | 8.0267     | 8.0267     |   0.0 | 94.23
Neigh   | 0          | 0          | 0          |   0.0 |  0.00
Comm    | 0.087852   | 0.087852   | 0.087852   |   0.0 |  1.03
Output  | 0.15103    | 0.15103    | 0.15103    |   0.0 |  1.77
Modify  | 0.20612    | 0.20612    | 0.20612    |   0.0 |  2.42
Other   |            | 0.04608    |            |       |  0.54

Nlocal:    500 ave 500 max 500 min
Histogram: 1 0 0 0 0 0 0 0 0 0
Nghost:    1956 ave 1956 max 1956 min
Histogram: 1 0 0 0 0 0 0 0 0 0
Neighs:    33500 ave 33500 max 33500 min
Histogram: 1 0 0 0 0 0 0 0 0 0

Total # of neighbors = 33500
Ave neighs/atom = 67
Neighbor list builds = 0
Dangerous builds = 0

#-------------------------------------------------
Total wall time: 0:00:08
