ITEM: TIMESTEP
0
ITEM: NUMBER OF ATOMS
250
ITEM: BOX BOUNDS pp pp pp
2.1246542862245481e+00 1.7875345713775143e+01
2.1246542862245481e+00 1.7875345713775143e+01
2.1246542862245481e+00 1.7875345713775143e+01
ITEM: ATOMS id type xs ys zs
1 1 0 0 0
2 1 0.1 0.1 0.1
3 1 0.2 0 0
11 1 0 0.2 0
13 1 0.2 0.2 0
51 1 0 0 0.2
53 1 0.2 0 0.2
61 1 0 0.2 0.2
63 1 0.2 0.2 0.2
4 1 0.3 0.1 0.1
12 1 0.1 0.3 0.1
14 1 0.3 0.3 0.1
52 1 0.1 0.1 0.3
54 1 0.3 0.1 0.3
62 1 0.1 0.3 0.3
64 1 0.3 0.3 0.3
5 1 0.4 0 0
15 1 0.4 0.2 0
55 1 0.4 0 0.2
65 1 0.4 0.2 0.2
6 1 0.5 0.1 0.1
7 1 0.6 0 0
17 1 0.6 0.2 0
57 1 0.6 0 0.2
67 1 0.6 0.2 0.2
16 1 0.5 0.3 0.1
56 1 0.5 0.1 0.3
66 1 0.5 0.3 0.3
8 1 0.7 0.1 0.1
9 1 0.8 0 0
10 1 0.9 0.1 0.1
19 1 0.8 0.2 0
59 1 0.8 0 0.2
69 1 0.8 0.2 0.2
18 1 0.7 0.3 0.1
20 1 0.9 0.3 0.1
58 1 0.7 0.1 0.3
60 1 0.9 0.1 0.3
68 1 0.7 0.3 0.3
70 1 0.9 0.3 0.3
21 1 0 0.4 0
23 1 0.2 0.4 0
71 1 0 0.4 0.2
73 1 0.2 0.4 0.2
22 1 0.1 0.5 0.1
31 1 0 0.6 0
33 1 0.2 0.6 0
81 1 0 0.6 0.2
83 1 0.2 0.6 0.2
24 1 0.3 0.5 0.1
72 1 0.1 0.5 0.3
74 1 0.3 0.5 0.3
25 1 0.4 0.4 0
75 1 0.4 0.4 0.2
27 1 0.6 0.4 0
77 1 0.6 0.4 0.2
35 1 0.4 0.6 0
85 1 0.4 0.6 0.2
26 1 0.5 0.5 0.1
37 1 0.6 0.6 0
87 1 0.6 0.6 0.2
76 1 0.5 0.5 0.3
29 1 0.8 0.4 0
79 1 0.8 0.4 0.2
28 1 0.7 0.5 0.1
30 1 0.9 0.5 0.1
39 1 0.8 0.6 0
89 1 0.8 0.6 0.2
78 1 0.7 0.5 0.3
80 1 0.9 0.5 0.3
32 1 0.1 0.7 0.1
34 1 0.3 0.7 0.1
41 1 0 0.8 0
42 1 0.1 0.9 0.1
43 1 0.2 0.8 0
91 1 0 0.8 0.2
93 1 0.2 0.8 0.2
44 1 0.3 0.9 0.1
82 1 0.1 0.7 0.3
84 1 0.3 0.7 0.3
92 1 0.1 0.9 0.3
94 1 0.3 0.9 0.3
36 1 0.5 0.7 0.1
45 1 0.4 0.8 0
95 1 0.4 0.8 0.2
46 1 0.5 0.9 0.1
47 1 0.6 0.8 0
97 1 0.6 0.8 0.2
86 1 0.5 0.7 0.3
96 1 0.5 0.9 0.3
38 1 0.7 0.7 0.1
40 1 0.9 0.7 0.1
48 1 0.7 0.9 0.1
49 1 0.8 0.8 0
50 1 0.9 0.9 0.1
99 1 0.8 0.8 0.2
88 1 0.7 0.7 0.3
90 1 0.9 0.7 0.3
98 1 0.7 0.9 0.3
100 1 0.9 0.9 0.3
101 1 0 0 0.4
103 1 0.2 0 0.4
111 1 0 0.2 0.4
113 1 0.2 0.2 0.4
102 1 0.1 0.1 0.5
151 1 0 0 0.6
153 1 0.2 0 0.6
161 1 0 0.2 0.6
163 1 0.2 0.2 0.6
104 1 0.3 0.1 0.5
112 1 0.1 0.3 0.5
114 1 0.3 0.3 0.5
105 1 0.4 0 0.4
115 1 0.4 0.2 0.4
107 1 0.6 0 0.4
117 1 0.6 0.2 0.4
155 1 0.4 0 0.6
165 1 0.4 0.2 0.6
106 1 0.5 0.1 0.5
157 1 0.6 0 0.6
167 1 0.6 0.2 0.6
116 1 0.5 0.3 0.5
109 1 0.8 0 0.4
119 1 0.8 0.2 0.4
108 1 0.7 0.1 0.5
110 1 0.9 0.1 0.5
159 1 0.8 0 0.6
169 1 0.8 0.2 0.6
118 1 0.7 0.3 0.5
120 1 0.9 0.3 0.5
121 1 0 0.4 0.4
123 1 0.2 0.4 0.4
131 1 0 0.6 0.4
133 1 0.2 0.6 0.4
171 1 0 0.4 0.6
173 1 0.2 0.4 0.6
122 1 0.1 0.5 0.5
181 1 0 0.6 0.6
183 1 0.2 0.6 0.6
124 1 0.3 0.5 0.5
125 1 0.4 0.4 0.4
127 1 0.6 0.4 0.4
135 1 0.4 0.6 0.4
137 1 0.6 0.6 0.4
175 1 0.4 0.4 0.6
177 1 0.6 0.4 0.6
185 1 0.4 0.6 0.6
126 1 0.5 0.5 0.5
187 1 0.6 0.6 0.6
129 1 0.8 0.4 0.4
139 1 0.8 0.6 0.4
179 1 0.8 0.4 0.6
128 1 0.7 0.5 0.5
130 1 0.9 0.5 0.5
189 1 0.8 0.6 0.6
141 1 0 0.8 0.4
143 1 0.2 0.8 0.4
132 1 0.1 0.7 0.5
134 1 0.3 0.7 0.5
142 1 0.1 0.9 0.5
191 1 0 0.8 0.6
193 1 0.2 0.8 0.6
144 1 0.3 0.9 0.5
145 1 0.4 0.8 0.4
147 1 0.6 0.8 0.4
136 1 0.5 0.7 0.5
195 1 0.4 0.8 0.6
146 1 0.5 0.9 0.5
197 1 0.6 0.8 0.6
149 1 0.8 0.8 0.4
138 1 0.7 0.7 0.5
140 1 0.9 0.7 0.5
148 1 0.7 0.9 0.5
150 1 0.9 0.9 0.5
199 1 0.8 0.8 0.6
152 1 0.1 0.1 0.7
154 1 0.3 0.1 0.7
162 1 0.1 0.3 0.7
164 1 0.3 0.3 0.7
201 1 0 0 0.8
202 1 0.1 0.1 0.9
203 1 0.2 0 0.8
211 1 0 0.2 0.8
213 1 0.2 0.2 0.8
204 1 0.3 0.1 0.9
212 1 0.1 0.3 0.9
214 1 0.3 0.3 0.9
156 1 0.5 0.1 0.7
166 1 0.5 0.3 0.7
205 1 0.4 0 0.8
215 1 0.4 0.2 0.8
206 1 0.5 0.1 0.9
207 1 0.6 0 0.8
217 1 0.6 0.2 0.8
216 1 0.5 0.3 0.9
158 1 0.7 0.1 0.7
160 1 0.9 0.1 0.7
168 1 0.7 0.3 0.7
170 1 0.9 0.3 0.7
208 1 0.7 0.1 0.9
209 1 0.8 0 0.8
210 1 0.9 0.1 0.9
219 1 0.8 0.2 0.8
218 1 0.7 0.3 0.9
220 1 0.9 0.3 0.9
172 1 0.1 0.5 0.7
174 1 0.3 0.5 0.7
221 1 0 0.4 0.8
223 1 0.2 0.4 0.8
222 1 0.1 0.5 0.9
231 1 0 0.6 0.8
233 1 0.2 0.6 0.8
224 1 0.3 0.5 0.9
176 1 0.5 0.5 0.7
225 1 0.4 0.4 0.8
227 1 0.6 0.4 0.8
235 1 0.4 0.6 0.8
226 1 0.5 0.5 0.9
237 1 0.6 0.6 0.8
178 1 0.7 0.5 0.7
180 1 0.9 0.5 0.7
229 1 0.8 0.4 0.8
228 1 0.7 0.5 0.9
230 1 0.9 0.5 0.9
239 1 0.8 0.6 0.8
182 1 0.1 0.7 0.7
184 1 0.3 0.7 0.7
192 1 0.1 0.9 0.7
194 1 0.3 0.9 0.7
232 1 0.1 0.7 0.9
234 1 0.3 0.7 0.9
241 1 0 0.8 0.8
242 1 0.1 0.9 0.9
243 1 0.2 0.8 0.8
244 1 0.3 0.9 0.9
186 1 0.5 0.7 0.7
196 1 0.5 0.9 0.7
236 1 0.5 0.7 0.9
245 1 0.4 0.8 0.8
246 1 0.5 0.9 0.9
247 1 0.6 0.8 0.8
188 1 0.7 0.7 0.7
190 1 0.9 0.7 0.7
198 1 0.7 0.9 0.7
200 1 0.9 0.9 0.7
238 1 0.7 0.7 0.9
240 1 0.9 0.7 0.9
248 1 0.7 0.9 0.9
249 1 0.8 0.8 0.8
250 1 0.9 0.9 0.9
ITEM: TIMESTEP
50
ITEM: NUMBER OF ATOMS
250
ITEM: BOX BOUNDS pp pp pp
2.1150022267091710e+00 1.7884997773290515e+01
2.1150022267091710e+00 1.7884997773290515e+01
2.1150022267091710e+00 1.7884997773290515e+01
ITEM: ATOMS id type xs ys zs
1 1 -0.00381603 0.00261016 0.00455818
2 1 0.0974199 0.096925 0.0965476
3 1 0.202015 0.00155182 0.00206766
11 1 0.00413214 0.199593 0.00454151
13 1 0.203906 0.202166 -0.000665349
51 1 -0.00208671 0.00170137 0.202926
53 1 0.197369 0.00449493 0.197188
61 1 0.00520485 0.201194 0.199802
63 1 0.201108 0.199455 0.202022
4 1 0.300972 0.100587 0.0990988
12 1 0.105128 0.302464 0.0959593
14 1 0.297725 0.300875 0.101478
52 1 0.0966951 0.0975848 0.299744
54 1 0.303489 0.101285 0.300157
62 1 0.101331 0.299384 0.298265
64 1 0.299057 0.30206 0.296256
5 1 0.398117 0.000561191 0.0023525
15 1 0.398478 0.197557 0.00562909
55 1 0.395637 -0.00451888 0.198689
65 1 0.403168 0.202677 0.204183
6 1 0.497616 0.0983053 0.0970589
7 1 0.598649 -0.00358499 0.00349927
17 1 0.598961 0.200554 -0.00011722
57 1 0.601218 -0.000688879 0.200624
67 1 0.600174 0.203507 0.198761
16 1 0.498645 0.299853 0.100991
56 1 0.496758 0.0955033 0.295717
66 1 0.500125 0.302489 0.297886
8 1 0.697423 0.103813 0.098277
9 1 0.801619 0.00349918 0.000592474
10 1 0.899054 0.100697 0.0994244
19 1 0.798065 0.201311 -0.00369601
59 1 0.798028 -0.00242665 0.204704
69 1 0.805896 0.199383 0.20002
18 1 0.701863 0.29952 0.102915
20 1 0.901276 0.296683 0.0996876
58 1 0.698519 0.102745 0.296427
60 1 0.903484 0.0974584 0.302318
68 1 0.702299 0.298345 0.297453
70 1 0.903068 0.303343 0.297133
21 1 0.0028304 0.398411 -0.000503124
23 1 0.201313 0.396946 -0.00530676
71 1 0.00164653 0.397975 0.196806
73 1 0.203579 0.398387 0.199826
22 1 0.0994761 0.495752 0.0964402
31 1 0.00262281 0.599413 -0.00274789
33 1 0.196581 0.598534 0.00151265
81 1 -0.00313473 0.597307 0.201498
83 1 0.194878 0.596536 0.1998
24 1 0.29886 0.496814 0.0970114
72 1 0.102042 0.496636 0.300419
74 1 0.300618 0.496637 0.303222
25 1 0.402226 0.395884 0.00134779
75 1 0.402577 0.404877 0.196942
27 1 0.603125 0.396782 -0.000925702
77 1 0.599902 0.404025 0.197928
35 1 0.39982 0.598279 0.00111716
85 1 0.395346 0.60339 0.198009
26 1 0.501556 0.500272 0.0973891
37 1 0.602543 0.602088 0.00334734
87 1 0.602219 0.601333 0.200793
76 1 0.494746 0.501112 0.303022
29 1 0.801394 0.401894 0.00304218
79 1 0.800929 0.400857 0.201685
28 1 0.70121 0.502779 0.103622
30 1 0.898904 0.496858 0.097824
39 1 0.803259 0.602713 -0.00207951
89 1 0.801845 0.596885 0.196103
78 1 0.697853 0.495902 0.29869
80 1 0.896929 0.502563 0.299978
32 1 0.0969472 0.698737 0.100929
34 1 0.293201 0.696011 0.0984863
41 1 -0.00147273 0.802415 -0.00340102
42 1 0.0977335 0.901787 0.101537
43 1 0.198081 0.802515 -0.00288121
91 1 -0.000708513 0.799763 0.200763
93 1 0.198495 0.802432 0.197937
44 1 0.295425 0.901399 0.101021
82 1 0.0964835 0.70381 0.297652
84 1 0.301393 0.698003 0.303358
92 1 0.0997582 0.902758 0.299447
94 1 0.297432 0.900536 0.301725
36 1 0.496356 0.700806 0.0970864
45 1 0.401166 0.799186 0.00293948
95 1 0.394706 0.79551 0.203834
46 1 0.498028 0.897986 0.0979696
47 1 0.604405 0.8011 0.00257999
97 1 0.599345 0.799771 0.195818
86 1 0.50394 0.698686 0.300047
96 1 0.498697 0.899042 0.296091
38 1 0.70245 0.699777 0.0975858
40 1 0.901159 0.695952 0.0958943
48 1 0.702185 0.901912 0.103742
49 1 0.804957 0.799432 0.003316
50 1 0.901792 0.900054 0.103273
99 1 0.801906 0.800729 0.199889
88 1 0.699904 0.696118 0.294632
90 1 0.896216 0.700842 0.29553
98 1 0.696496 0.895958 0.302652
100 1 0.900471 0.896218 0.300156
101 1 -0.0037948 -0.0044094 0.399548
103 1 0.197858 0.000132473 0.399024
111 1 0.00048804 0.199211 0.403388
113 1 0.202865 0.196546 0.400113
102 1 0.101366 0.104953 0.503605
151 1 0.00266489 0.00186431 0.5963
153 1 0.197893 -0.000572323 0.596629
161 1 -0.00166088 0.204333 0.60523
163 1 0.201895 0.197867 0.606271
104 1 0.301431 0.104694 0.50487
112 1 0.101359 0.302215 0.502517
114 1 0.301885 0.297968 0.497261
105 1 0.395397 0.0020439 0.401019
115 1 0.401526 0.202894 0.402079
107 1 0.597994 -0.000192402 0.401326
117 1 0.600736 0.19748 0.394069
155 1 0.399165 0.00241523 0.595657
165 1 0.402056 0.198994 0.600331
106 1 0.499432 0.103527 0.49477
157 1 0.595466 -0.00429177 0.597876
167 1 0.598788 0.199857 0.596049
116 1 0.505401 0.299387 0.496497
109 1 0.800128 0.00409336 0.396704
119 1 0.799749 0.201676 0.398428
108 1 0.69649 0.103738 0.496139
110 1 0.898122 0.102008 0.504487
159 1 0.795718 0.00397415 0.598978
169 1 0.797845 0.198822 0.603542
118 1 0.699339 0.301491 0.501414
120 1 0.898706 0.299679 0.494824
121 1 0.00367501 0.400863 0.395482
123 1 0.199275 0.401495 0.404186
131 1 -0.00501686 0.602614 0.400975
133 1 0.195165 0.605126 0.396923
171 1 -0.00178935 0.398194 0.597605
173 1 0.200614 0.399588 0.599031
122 1 0.100625 0.497605 0.503136
181 1 -0.00276443 0.599921 0.597642
183 1 0.202613 0.598855 0.599235
124 1 0.30249 0.501907 0.498257
125 1 0.397253 0.399327 0.399218
127 1 0.603587 0.401204 0.399287
135 1 0.396215 0.600791 0.40182
137 1 0.602893 0.596145 0.399137
175 1 0.400587 0.401273 0.596646
177 1 0.596455 0.401786 0.604069
185 1 0.406164 0.601959 0.597589
126 1 0.498925 0.496608 0.496975
187 1 0.604175 0.596887 0.601012
129 1 0.798036 0.400114 0.398203
139 1 0.798789 0.599068 0.404531
179 1 0.795233 0.399491 0.598931
128 1 0.697311 0.499938 0.501265
130 1 0.900174 0.496447 0.496836
189 1 0.803539 0.598031 0.604235
141 1 0.00263793 0.79949 0.402572
143 1 0.203744 0.803159 0.402121
132 1 0.0983002 0.697816 0.501918
134 1 0.297587 0.699418 0.503014
142 1 0.0974139 0.9024 0.501137
191 1 -0.00169622 0.79805 0.605016
193 1 0.203388 0.801359 0.600644
144 1 0.301244 0.904589 0.499792
145 1 0.40119 0.797293 0.402829
147 1 0.602375 0.800746 0.402868
136 1 0.499473 0.700021 0.497216
195 1 0.406537 0.799312 0.596905
146 1 0.499491 0.902004 0.498197
197 1 0.604758 0.795851 0.601137
149 1 0.798828 0.797803 0.396375
138 1 0.699644 0.697584 0.497546
140 1 0.898883 0.703392 0.50196
148 1 0.700796 0.899355 0.498349
150 1 0.89662 0.896842 0.498298
199 1 0.803499 0.804274 0.604373
152 1 0.0986727 0.0973017 0.701058
154 1 0.298426 0.095749 0.702476
162 1 0.104537 0.29894 0.703093
164 1 0.303818 0.304643 0.699518
201 1 0.00220448 -0.000947022 0.801463
202 1 0.0996267 0.0963746 0.902679
203 1 0.198609 -0.00289727 0.798661
211 1 -0.00410288 0.197571 0.805397
213 1 0.202123 0.199831 0.803431
204 1 0.301482 0.100942 0.89823
212 1 0.0980132 0.298854 0.898785
214 1 0.303997 0.298808 0.903131
156 1 0.496056 0.0992157 0.700174
166 1 0.504288 0.297816 0.69943
205 1 0.397986 0.00225146 0.799556
215 1 0.399076 0.200126 0.800279
206 1 0.502766 0.10382 0.900589
207 1 0.601984 0.00438946 0.799276
217 1 0.600049 0.197081 0.797194
216 1 0.498259 0.298286 0.898359
158 1 0.697353 0.0951056 0.69843
160 1 0.897175 0.0964956 0.705108
168 1 0.701492 0.29741 0.704199
170 1 0.897051 0.29737 0.697779
208 1 0.695299 0.098601 0.902079
209 1 0.804065 0.000630037 0.805108
210 1 0.896763 0.102756 0.902028
219 1 0.796073 0.201576 0.798901
218 1 0.699919 0.29616 0.903748
220 1 0.899763 0.300796 0.898108
172 1 0.103421 0.502419 0.699813
174 1 0.304082 0.505525 0.696428
221 1 -0.00335462 0.39556 0.797602
223 1 0.19963 0.402273 0.79748
222 1 0.0980161 0.499191 0.894026
231 1 -0.00257588 0.601985 0.794962
233 1 0.201145 0.601625 0.802236
224 1 0.295975 0.496759 0.898737
176 1 0.498188 0.498495 0.697718
225 1 0.400352 0.398586 0.799626
227 1 0.600315 0.400523 0.798508
235 1 0.398424 0.597916 0.802712
226 1 0.497364 0.503966 0.896721
237 1 0.601868 0.603243 0.799567
178 1 0.70223 0.501401 0.704318
180 1 0.904522 0.499147 0.69701
229 1 0.796886 0.402839 0.804438
228 1 0.696564 0.496741 0.905699
230 1 0.898533 0.501347 0.897291
239 1 0.796984 0.597272 0.802253
182 1 0.103753 0.702714 0.700658
184 1 0.302403 0.703019 0.70319
192 1 0.105014 0.895433 0.701924
194 1 0.304132 0.897811 0.699017
232 1 0.0982426 0.6977 0.90036
234 1 0.297304 0.700911 0.897589
241 1 0.00078338 0.802138 0.803481
242 1 0.0967351 0.903888 0.901636
243 1 0.196077 0.798054 0.80513
244 1 0.300683 0.902068 0.89804
186 1 0.503426 0.697166 0.703521
196 1 0.502731 0.90326 0.702697
236 1 0.496038 0.704262 0.900037
245 1 0.399784 0.803537 0.796809
246 1 0.503514 0.903765 0.896111
247 1 0.602276 0.803286 0.797782
188 1 0.701494 0.700916 0.697776
190 1 0.897461 0.701446 0.70261
198 1 0.704508 0.900662 0.702396
200 1 0.905355 0.904131 0.697167
238 1 0.702325 0.698462 0.901616
240 1 0.899653 0.696431 0.896072
248 1 0.70146 0.895736 0.901138
249 1 0.805311 0.80214 0.803854
250 1 0.900469 0.903204 0.904646
ITEM: TIMESTEP
100
ITEM: NUMBER OF ATOMS
250
ITEM: BOX BOUNDS pp pp pp
2.1229453475841442e+00 1.7877054652415538e+01
2.1229453475841442e+00 1.7877054652415538e+01
2.1229453475841442e+00 1.7877054652415538e+01
ITEM: ATOMS id type xs ys zs
1 1 -0.000607153 0.000392443 0.000525789
2 1 0.102585 0.103273 0.103424
3 1 0.198428 0.0010111 -0.00279545
11 1 -0.000386374 0.201549 -0.00116291
13 1 0.19972 0.196646 0.00103783
51 1 -0.0029176 -0.000369084 0.200565
53 1 0.198317 0.00104548 0.202804
61 1 0.00302548 0.199059 0.201536
63 1 0.201615 0.198696 0.199003
4 1 0.298284 0.101474 0.103951
12 1 0.102198 0.296368 0.100841
14 1 0.304817 0.298876 0.100714
52 1 0.102364 0.102644 0.303714
54 1 0.297518 0.100695 0.300697
62 1 0.104008 0.298216 0.302227
64 1 0.302296 0.299617 0.302469
5 1 0.400362 -0.00331291 -0.00330107
15 1 0.402079 0.200759 -0.000180782
55 1 0.398134 -0.0012282 0.199734
65 1 0.399329 0.199795 0.199701
6 1 0.500672 0.0983435 0.103447
7 1 0.600868 0.000286898 0.000217165
17 1 0.597188 0.199606 0.0012207
57 1 0.596558 -0.00031344 0.199419
67 1 0.600021 0.199737 0.197222
16 1 0.501955 0.300266 0.0989261
56 1 0.500267 0.0997314 0.29668
66 1 0.502046 0.302818 0.299065
8 1 0.700161 0.100036 0.10162
9 1 0.795169 -0.000637877 0.00668088
10 1 0.897407 0.100567 0.10481
19 1 0.801677 0.201416 0.00357364
59 1 0.800305 0.00188709 0.200834
69 1 0.802104 0.198841 0.200159
18 1 0.702004 0.302211 0.100449
20 1 0.903309 0.300279 0.097244
58 1 0.700253 0.0975979 0.296529
60 1 0.898549 0.104373 0.301794
68 1 0.701158 0.300813 0.299154
70 1 0.903363 0.298303 0.29944
21 1 -0.00142774 0.398721 -0.00613336
23 1 0.20061 0.400614 -0.00384404
71 1 0.00278249 0.400252 0.19753
73 1 0.198687 0.40171 0.198949
22 1 0.100252 0.499186 0.097716
31 1 -0.00147196 0.596258 -0.00245377
33 1 0.198802 0.597444 -0.00341549
81 1 0.000699131 0.596668 0.197891
83 1 0.197223 0.599596 0.200085
24 1 0.298713 0.499131 0.0987111
72 1 0.0973695 0.50169 0.299154
74 1 0.29589 0.503291 0.297051
25 1 0.402412 0.401249 -0.00301092
75 1 0.400219 0.402334 0.199633
27 1 0.597632 0.400433 0.00181118
77 1 0.599703 0.400625 0.199287
35 1 0.396087 0.598793 -0.00187579
85 1 0.397722 0.597836 0.200276
26 1 0.500289 0.502778 0.098217
37 1 0.598057 0.600742 -0.00204033
87 1 0.594836 0.599619 0.19741
76 1 0.500273 0.502629 0.296551
29 1 0.80085 0.398548 0.000629423
79 1 0.802769 0.39778 0.198318
28 1 0.700478 0.498452 0.0977531
30 1 0.904431 0.497983 0.097672
39 1 0.80065 0.595946 -0.000571485
89 1 0.799978 0.6009 0.200541
78 1 0.699904 0.501638 0.300525
80 1 0.900694 0.498618 0.298902
32 1 0.0964842 0.69974 0.0985098
34 1 0.294811 0.700739 0.0993942
41 1 0.00113152 0.798457 0.00299591
42 1 0.097197 0.899358 0.0999115
43 1 0.197426 0.79997 0.00197508
91 1 -0.00112636 0.799239 0.198452
93 1 0.196776 0.798242 0.201737
44 1 0.297951 0.896025 0.0991344
82 1 0.099076 0.699694 0.301346
84 1 0.293878 0.699855 0.299786
92 1 0.0987661 0.898954 0.300901
94 1 0.298399 0.900127 0.299461
36 1 0.499133 0.698483 0.101805
45 1 0.39439 0.802027 -0.00194822
95 1 0.397083 0.798763 0.199082
46 1 0.497108 0.898634 0.100523
47 1 0.600604 0.799462 -0.0022823
97 1 0.598399 0.79862 0.200636
86 1 0.498841 0.699648 0.298895
96 1 0.496497 0.896111 0.300192
38 1 0.701705 0.701732 0.100435
40 1 0.903562 0.699282 0.0992926
48 1 0.70128 0.900723 0.100506
49 1 0.802192 0.802915 0.000705239
50 1 0.898963 0.900513 0.102808
99 1 0.79767 0.797168 0.197798
88 1 0.701342 0.698144 0.29968
90 1 0.89952 0.697421 0.300929
98 1 0.699028 0.899544 0.299261
100 1 0.89793 0.898804 0.302681
101 1 -0.000651764 0.00198497 0.404699
103 1 0.197039 0.00398033 0.400965
111 1 0.00182528 0.200162 0.401204
113 1 0.199769 0.202346 0.401935
102 1 0.0981545 0.102564 0.500912
151 1 -0.00357534 0.00128374 0.602137
153 1 0.201253 9.36282e-05 0.601526
161 1 0.000179084 0.198396 0.603971
163 1 0.201367 0.202738 0.603694
104 1 0.29807 0.10108 0.499054
112 1 0.101161 0.296983 0.50071
114 1 0.300476 0.302208 0.50188
105 1 0.39965 0.000389396 0.396833
115 1 0.4017 0.200855 0.3962
107 1 0.59836 -0.0005276 0.395166
117 1 0.598964 0.202729 0.394067
155 1 0.400572 -0.00030326 0.601429
165 1 0.401063 0.2042 0.601632
106 1 0.499462 0.0992354 0.497751
157 1 0.600503 0.00081629 0.598152
167 1 0.600531 0.197071 0.598983
116 1 0.500732 0.301821 0.498082
109 1 0.795501 -0.000851785 0.401685
119 1 0.801426 0.200458 0.399187
108 1 0.699343 0.0991176 0.497664
110 1 0.899219 0.100667 0.501755
159 1 0.799717 -0.000348436 0.598386
169 1 0.796829 0.200541 0.597594
118 1 0.699998 0.299156 0.49885
120 1 0.89966 0.300355 0.500135
121 1 -0.0011669 0.399953 0.399271
123 1 0.20135 0.398794 0.398947
131 1 -0.00122442 0.599928 0.398219
133 1 0.195255 0.599931 0.401178
171 1 -0.000380116 0.398847 0.599092
173 1 0.203492 0.399679 0.602029
122 1 0.0990239 0.503352 0.498374
181 1 0.00209641 0.599714 0.599281
183 1 0.201214 0.602658 0.60008
124 1 0.297415 0.500878 0.500313
125 1 0.402202 0.398638 0.398231
127 1 0.598053 0.396534 0.397911
135 1 0.400404 0.600984 0.398235
137 1 0.597744 0.600311 0.399725
175 1 0.400902 0.39798 0.598168
177 1 0.602375 0.397737 0.598728
185 1 0.403321 0.601936 0.600899
126 1 0.50178 0.500923 0.498427
187 1 0.601715 0.599699 0.60026
129 1 0.801446 0.399596 0.399658
139 1 0.799134 0.598445 0.398355
179 1 0.799748 0.399187 0.60284
128 1 0.702129 0.49753 0.50253
130 1 0.898639 0.499004 0.499595
189 1 0.800413 0.600171 0.599805
141 1 -0.000621041 0.798646 0.401708
143 1 0.197539 0.800791 0.401052
132 1 0.0998934 0.702724 0.501755
134 1 0.301043 0.702797 0.50216
142 1 0.0999132 0.897656 0.501006
191 1 0.00450945 0.801658 0.601127
193 1 0.202479 0.799971 0.600564
144 1 0.299138 0.899493 0.500888
145 1 0.400022 0.802469 0.398848
147 1 0.597999 0.79585 0.39738
136 1 0.506116 0.696334 0.500493
195 1 0.404819 0.802036 0.601504
146 1 0.500685 0.899174 0.49724
197 1 0.602085 0.800628 0.599107
149 1 0.800067 0.798879 0.401653
138 1 0.702629 0.70014 0.500899
140 1 0.896651 0.698777 0.500057
148 1 0.700613 0.900992 0.501984
150 1 0.898525 0.903456 0.500481
199 1 0.799595 0.800174 0.599971
152 1 0.0983536 0.09965 0.704429
154 1 0.298144 0.100993 0.700066
162 1 0.0986362 0.299319 0.701087
164 1 0.302969 0.299267 0.699997
201 1 -0.000724817 0.000630767 0.801746
202 1 0.100503 0.101975 0.900264
203 1 0.201186 -0.000823377 0.801117
211 1 0.000664786 0.19779 0.800958
213 1 0.199025 0.199239 0.801526
204 1 0.300445 0.0985889 0.902656
212 1 0.102148 0.297703 0.897669
214 1 0.300394 0.299623 0.89705
156 1 0.500014 0.0995666 0.696637
166 1 0.499432 0.299451 0.698321
205 1 0.402719 0.000564434 0.800441
215 1 0.400578 0.200312 0.799655
206 1 0.496271 0.0984218 0.900216
207 1 0.600748 -0.0024328 0.801272
217 1 0.598585 0.201266 0.798725
216 1 0.502913 0.301238 0.899909
158 1 0.69704 0.100205 0.698518
160 1 0.899301 0.101331 0.700677
168 1 0.696838 0.301294 0.699167
170 1 0.898369 0.300967 0.700738
208 1 0.700377 0.0970265 0.900513
209 1 0.798079 0.00018504 0.801558
210 1 0.90008 0.102315 0.903901
219 1 0.798074 0.196528 0.802846
218 1 0.697242 0.300656 0.899734
220 1 0.897239 0.300855 0.901703
172 1 0.100806 0.499827 0.69663
174 1 0.301761 0.501656 0.698805
221 1 -0.000342528 0.399717 0.795636
223 1 0.202312 0.398392 0.796744
222 1 0.0962908 0.497485 0.896023
231 1 0.0014334 0.598555 0.79639
233 1 0.198883 0.599535 0.797879
224 1 0.301415 0.50075 0.898097
176 1 0.502178 0.501312 0.701481
225 1 0.401154 0.40127 0.798541
227 1 0.598448 0.400083 0.80363
235 1 0.400844 0.60361 0.799152
226 1 0.50091 0.499066 0.901343
237 1 0.599035 0.599821 0.804506
178 1 0.699508 0.497649 0.701861
180 1 0.89873 0.496302 0.699396
229 1 0.798955 0.397324 0.800282
228 1 0.698286 0.501334 0.903093
230 1 0.901374 0.497152 0.898109
239 1 0.800224 0.601214 0.799983
182 1 0.100399 0.697288 0.699661
184 1 0.30397 0.700905 0.698668
192 1 0.10134 0.901633 0.699036
194 1 0.302044 0.901338 0.697608
232 1 0.0976574 0.700233 0.900315
234 1 0.300851 0.700238 0.904624
241 1 -0.000143605 0.80099 0.800547
242 1 0.101758 0.900406 0.904579
243 1 0.202583 0.80276 0.800858
244 1 0.300648 0.899768 0.900848
186 1 0.501578 0.702235 0.699162
196 1 0.502959 0.89892 0.69643
236 1 0.502135 0.703484 0.900162
245 1 0.403204 0.800515 0.802729
246 1 0.499817 0.901861 0.901807
247 1 0.604257 0.80055 0.802196
188 1 0.705189 0.700824 0.70321
190 1 0.902164 0.70129 0.700189
198 1 0.70404 0.901352 0.700982
200 1 0.902725 0.902922 0.702806
238 1 0.698812 0.701487 0.8983
240 1 0.902173 0.701932 0.900588
248 1 0.703056 0.902186 0.904117
249 1 0.802133 0.801617 0.802362
250 1 0.900385 0.902035 0.901421
ITEM: TIMESTEP
150
ITEM: NUMBER OF ATOMS
250
ITEM: BOX BOUNDS pp pp pp
2.1193801663981953e+00 1.7880619833601500e+01
2.1193801663981953e+00 1.7880619833601500e+01
2.1193801663981953e+00 1.7880619833601500e+01
ITEM: ATOMS id type xs ys zs
1 1 0.00196314 2.26323e-05 0.000616123
2 1 0.0991766 0.0987804 0.104574
3 1 0.198247 -0.00236359 0.00392364
11 1 -0.00190414 0.198829 -0.00196673
13 1 0.199827 0.20067 0.000667232
51 1 0.0024823 -0.000571779 0.203289
53 1 0.198972 -0.00700888 0.202578
61 1 -0.00338464 0.199169 0.201333
63 1 0.201746 0.204955 0.202415
4 1 0.301504 0.0945637 0.0992567
12 1 0.0991393 0.299851 0.101158
14 1 0.302241 0.301226 0.0959933
52 1 0.100074 0.101625 0.30222
54 1 0.297474 0.0991694 0.301365
62 1 0.100219 0.303356 0.301014
64 1 0.30225 0.300918 0.301519
5 1 0.399405 0.0015721 0.00274096
15 1 0.400735 0.200905 -0.00539263
55 1 0.399955 0.00225649 0.19977
65 1 0.399451 0.198534 0.195482
6 1 0.498709 0.100477 0.0991551
7 1 0.597805 0.0031823 -0.000980587
17 1 0.60345 0.197904 -0.00141365
57 1 0.598268 -0.00363001 0.197944
67 1 0.601225 0.198265 0.200143
16 1 0.501453 0.301333 0.0998145
56 1 0.50107 0.104054 0.302891
66 1 0.499516 0.297757 0.296011
8 1 0.70003 0.098061 0.102171
9 1 0.802569 0.000419837 0.000710434
10 1 0.905201 0.0998697 0.101247
19 1 0.79836 0.197379 0.00501426
59 1 0.799973 -0.00100331 0.200799
69 1 0.794463 0.204298 0.201495
18 1 0.698924 0.299216 0.0965559
20 1 0.902665 0.302176 0.102553
58 1 0.699978 0.0993283 0.303288
60 1 0.898808 0.0986701 0.302123
68 1 0.701305 0.301902 0.299688
70 1 0.900141 0.298247 0.301492
21 1 0.00180497 0.397981 -0.00200505
23 1 0.199625 0.398667 0.00255563
71 1 0.00136344 0.39764 0.20108
73 1 0.198616 0.399335 0.19809
22 1 0.10148 0.500799 0.0977275
31 1 -0.00206545 0.598909 -0.00211011
33 1 0.199031 0.600167 -0.00439831
81 1 0.00116488 0.602759 0.196745
83 1 0.200926 0.603327 0.196292
24 1 0.299813 0.502484 0.0992165
72 1 0.0975712 0.500221 0.298709
74 1 0.297827 0.50231 0.29874
25 1 0.395444 0.403036 -0.0018628
75 1 0.396715 0.395567 0.200662
27 1 0.599161 0.403114 0.00220452
77 1 0.602514 0.397659 0.20064
35 1 0.400145 0.604123 -0.000498947
85 1 0.398488 0.5993 0.198888
26 1 0.495445 0.498961 0.100672
37 1 0.59783 0.600409 -0.000741217
87 1 0.601362 0.59945 0.197639
76 1 0.503085 0.498837 0.29706
29 1 0.797265 0.397959 -0.00450487
79 1 0.801626 0.400476 0.198325
28 1 0.700297 0.499758 0.0991063
30 1 0.900234 0.501295 0.100603
39 1 0.797497 0.599812 0.00163982
89 1 0.79809 0.598524 0.199418
78 1 0.701494 0.50155 0.298971
80 1 0.901762 0.495123 0.297618
32 1 0.10238 0.697158 0.0990625
34 1 0.303512 0.699974 0.10266
41 1 -0.000934883 0.799374 0.0019148
42 1 0.101085 0.901127 0.102635
43 1 0.198771 0.796196 0.00261143
91 1 -0.00286959 0.798931 0.204159
93 1 0.19594 0.798806 0.202151
44 1 0.298823 0.901818 0.10067
82 1 0.0980434 0.696246 0.301991
84 1 0.297224 0.702646 0.29911
92 1 0.095309 0.899457 0.303128
94 1 0.29749 0.899167 0.299434
36 1 0.498404 0.701378 0.0988853
45 1 0.400411 0.797386 7.97667e-05
95 1 0.399843 0.801314 0.195863
46 1 0.500416 0.899011 0.101295
47 1 0.595231 0.800758 0.0019238
97 1 0.598606 0.798773 0.201537
86 1 0.491382 0.700064 0.299218
96 1 0.499673 0.900722 0.300031
38 1 0.69654 0.69721 0.0989986
40 1 0.895788 0.700692 0.103822
48 1 0.692917 0.89617 0.100476
49 1 0.79631 0.797452 -0.00155866
50 1 0.897515 0.899681 0.0993722
99 1 0.799206 0.799937 0.203239
88 1 0.6979 0.702903 0.30466
90 1 0.903106 0.698665 0.302661
98 1 0.70112 0.90027 0.297397
100 1 0.898099 0.904111 0.301962
101 1 0.000569567 0.0039721 0.400197
103 1 0.201135 -0.00179246 0.404435
111 1 -0.000981642 0.202608 0.400228
113 1 0.201362 0.204581 0.403036
102 1 0.0994281 0.0943304 0.504507
151 1 -0.000325154 -0.000495478 0.606425
153 1 0.199989 0.00365598 0.603614
161 1 -7.24672e-05 0.196982 0.59609
163 1 0.197778 0.201103 0.595764
104 1 0.300359 0.0976939 0.497589
112 1 0.0986053 0.302391 0.500842
114 1 0.300116 0.302225 0.501596
105 1 0.401334 -0.000906978 0.399261
115 1 0.399018 0.197168 0.399231
107 1 0.599482 -0.0015204 0.396813
117 1 0.600816 0.198906 0.403482
155 1 0.401711 0.000762331 0.600061
165 1 0.398537 0.197384 0.594838
106 1 0.499048 0.0973711 0.500655
157 1 0.60461 0.00265375 0.599445
167 1 0.598992 0.201133 0.598271
116 1 0.495749 0.298141 0.501649
109 1 0.800093 -0.00340618 0.401902
119 1 0.798414 0.198518 0.400692
108 1 0.700545 0.0974879 0.499182
110 1 0.899295 0.101068 0.496739
159 1 0.802734 -0.00125948 0.604239
169 1 0.8013 0.200402 0.598955
118 1 0.700558 0.2974 0.49584
120 1 0.902279 0.29914 0.506184
121 1 -0.000676113 0.398145 0.403851
123 1 0.200354 0.402111 0.397
131 1 0.00125935 0.59729 0.400193
133 1 0.205047 0.597451 0.403609
171 1 0.00328758 0.400664 0.598861
173 1 0.198636 0.402347 0.598379
122 1 0.0988665 0.498864 0.496704
181 1 0.000935172 0.600211 0.599928
183 1 0.20028 0.601636 0.599796
124 1 0.300629 0.500916 0.499491
125 1 0.401379 0.406172 0.399004
127 1 0.600467 0.403425 0.399262
135 1 0.39947 0.599778 0.399097
137 1 0.600132 0.599836 0.398882
175 1 0.403346 0.405106 0.601814
177 1 0.601812 0.398523 0.595569
185 1 0.39669 0.597811 0.599798
126 1 0.50134 0.501969 0.502754
187 1 0.600971 0.602086 0.602649
129 1 0.801232 0.398313 0.400405
139 1 0.800431 0.598829 0.396798
179 1 0.804531 0.398757 0.599679
128 1 0.701994 0.499304 0.497219
130 1 0.900544 0.502959 0.503006
189 1 0.798313 0.600038 0.598402
141 1 -0.00604252 0.801857 0.399088
143 1 0.196046 0.798523 0.399546
132 1 0.100819 0.701622 0.498842
134 1 0.306334 0.700612 0.495018
142 1 0.101909 0.902884 0.500751
191 1 -0.000656445 0.802501 0.59704
193 1 0.199598 0.800728 0.602491
144 1 0.299939 0.898723 0.498335
145 1 0.395504 0.799474 0.398097
147 1 0.599426 0.799648 0.397439
136 1 0.49969 0.70233 0.502056
195 1 0.396525 0.800871 0.60064
146 1 0.50114 0.897741 0.499207
197 1 0.600855 0.803258 0.599024
149 1 0.798817 0.80156 0.402552
138 1 0.700371 0.700052 0.502581
140 1 0.904214 0.697473 0.499783
148 1 0.696652 0.898604 0.498619
150 1 0.903809 0.900932 0.504348
199 1 0.802342 0.797693 0.598923
152 1 0.101962 0.101888 0.699138
154 1 0.303584 0.104006 0.698968
162 1 0.0968334 0.300127 0.696194
164 1 0.296528 0.297096 0.701534
201 1 -0.00150616 0.00152402 0.803011
202 1 0.0995153 0.10133 0.901208
203 1 0.202685 0.00329951 0.80217
211 1 -3.51231e-05 0.204025 0.797284
213 1 0.200791 0.198634 0.797465
204 1 0.299022 0.0998757 0.902076
212 1 0.101265 0.301591 0.901078
214 1 0.299322 0.300245 0.898398
156 1 0.503033 0.100191 0.700084
166 1 0.498381 0.303935 0.700312
205 1 0.402214 -0.003117 0.797419
215 1 0.401609 0.19915 0.799936
206 1 0.500399 0.0977298 0.899064
207 1 0.597664 -0.00332999 0.799541
217 1 0.598688 0.198829 0.803453
216 1 0.498954 0.299797 0.900384
158 1 0.702727 0.104834 0.701672
160 1 0.897814 0.104634 0.698781
168 1 0.697664 0.299512 0.697117
170 1 0.899505 0.298085 0.703068
208 1 0.701717 0.104722 0.90085
209 1 0.797915 0.00120028 0.797973
210 1 0.900426 0.0959211 0.901935
219 1 0.801481 0.19897 0.801515
218 1 0.699719 0.301368 0.898583
220 1 0.899966 0.296432 0.89784
172 1 0.0982546 0.496007 0.696671
174 1 0.299564 0.49639 0.701489
221 1 0.0034998 0.400532 0.79959
223 1 0.200862 0.398775 0.800362
222 1 0.10511 0.498967 0.899901
231 1 0.000877675 0.597722 0.802818
233 1 0.201514 0.599713 0.796931
224 1 0.302693 0.502858 0.896293
176 1 0.503305 0.501837 0.70057
225 1 0.401577 0.403153 0.79842
227 1 0.60014 0.400414 0.800115
235 1 0.402982 0.603908 0.798098
226 1 0.500698 0.5001 0.901759
237 1 0.599997 0.59899 0.79864
178 1 0.697714 0.50009 0.698964
180 1 0.895435 0.503117 0.701271
229 1 0.79989 0.396419 0.798004
228 1 0.705365 0.502079 0.893309
230 1 0.897881 0.499046 0.898071
239 1 0.805464 0.601193 0.799485
182 1 0.100182 0.701298 0.700784
184 1 0.299835 0.700259 0.69999
192 1 0.0976102 0.904364 0.702336
194 1 0.299903 0.90287 0.703168
232 1 0.103231 0.700901 0.897067
234 1 0.299149 0.699733 0.897918
241 1 0.00399321 0.799547 0.798357
242 1 0.101453 0.896431 0.896681
243 1 0.204933 0.799753 0.795588
244 1 0.298309 0.898481 0.900133
186 1 0.504439 0.703618 0.698783
196 1 0.502023 0.898806 0.699312
236 1 0.501674 0.696486 0.9016
245 1 0.402919 0.799797 0.801678
246 1 0.499915 0.895536 0.902883
247 1 0.600486 0.799417 0.800538
188 1 0.699407 0.698692 0.702137
190 1 0.905019 0.699135 0.697023
198 1 0.697428 0.899742 0.699279
200 1 0.895243 0.896155 0.703538
238 1 0.703537 0.701835 0.902825