ITEM: TIMESTEP
0
ITEM: NUMBER OF ATOMS
250
ITEM: BOX BOUNDS pp pp pp
2.1246542862245499e+00 1.7875345713775143e+01
2.1246542862245499e+00 1.7875345713775143e+01
2.1246542862245499e+00 1.7875345713775143e+01
ITEM: ATOMS id type xs ys zs
1 1 1.1278e-16 1.1278e-16 1.40975e-16
2 1 0.1 0.1 0.1
3 1 0.2 1.1278e-16 1.1278e-16
6 1 1.1278e-16 0.2 1.1278e-16
8 1 0.2 0.2 1.1278e-16
14 1 1.1278e-16 1.1278e-16 0.2
16 1 0.2 1.1278e-16 0.2
19 1 1.1278e-16 0.2 0.2
21 1 0.2 0.2 0.2
4 1 0.3 0.1 0.1
5 1 0.4 1.1278e-16 1.1278e-16
10 1 0.4 0.2 1.1278e-16
18 1 0.4 1.1278e-16 0.2
23 1 0.4 0.2 0.2
7 1 0.1 0.3 0.1
11 1 1.1278e-16 0.4 1.1278e-16
12 1 0.2 0.4 1.1278e-16
24 1 1.1278e-16 0.4 0.2
25 1 0.2 0.4 0.2
9 1 0.3 0.3 0.1
13 1 0.4 0.4 1.1278e-16
26 1 0.4 0.4 0.2
15 1 0.1 0.1 0.3
27 1 1.1278e-16 1.1278e-16 0.4
28 1 0.2 1.1278e-16 0.4
30 1 1.1278e-16 0.2 0.4
31 1 0.2 0.2 0.4
17 1 0.3 0.1 0.3
29 1 0.4 1.1278e-16 0.4
32 1 0.4 0.2 0.4
20 1 0.1 0.3 0.3
33 1 1.1278e-16 0.4 0.4
34 1 0.2 0.4 0.4
22 1 0.3 0.3 0.3
35 1 0.4 0.4 0.4
126 1 0.5 0.1 0.1
131 1 0.5 0.3 0.1
138 1 0.5 0.1 0.3
143 1 0.5 0.3 0.3
66 1 0.1 0.5 0.1
67 1 0.3 0.5 0.1
78 1 0.1 0.5 0.3
199 1 0.5 0.5 0.3
79 1 0.3 0.5 0.3
186 1 0.5 0.5 0.1
36 1 0.1 0.1 0.5
216 1 0.5 0.5 0.5
37 1 0.3 0.1 0.5
38 1 0.1 0.3 0.5
39 1 0.3 0.3 0.5
156 1 0.5 0.1 0.5
97 1 0.3 0.5 0.5
159 1 0.5 0.3 0.5
96 1 0.1 0.5 0.5
225 1 0.5 0.5 0.7
40 1 1.40975e-16 1.40975e-16 0.6
41 1 0.1 0.1 0.7
42 1 0.2 1.40975e-16 0.6
45 1 1.40975e-16 0.2 0.6
47 1 0.2 0.2 0.6
115 1 0.3 0.5 0.9
43 1 0.3 0.1 0.7
44 1 0.4 1.1278e-16 0.6
49 1 0.4 0.2 0.6
114 1 0.1 0.5 0.9
46 1 0.1 0.3 0.7
50 1 1.1278e-16 0.4 0.6
51 1 0.2 0.4 0.6
103 1 0.3 0.5 0.7
48 1 0.3 0.3 0.7
52 1 0.4 0.4 0.6
53 1 1.1278e-16 1.1278e-16 0.8
54 1 0.1 0.1 0.9
55 1 0.2 1.1278e-16 0.8
58 1 1.1278e-16 0.2 0.8
60 1 0.2 0.2 0.8
56 1 0.3 0.1 0.9
57 1 0.4 1.1278e-16 0.8
62 1 0.4 0.2 0.8
59 1 0.1 0.3 0.9
63 1 1.1278e-16 0.4 0.8
64 1 0.2 0.4 0.8
61 1 0.3 0.3 0.9
65 1 0.4 0.4 0.8
238 1 0.5 0.5 0.9
162 1 0.5 0.1 0.7
102 1 0.1 0.5 0.7
167 1 0.5 0.3 0.7
174 1 0.5 0.1 0.9
179 1 0.5 0.3 0.9
207 1 0.5 0.9 0.3
68 1 1.1278e-16 0.6 1.1278e-16
69 1 0.1 0.7 0.1
70 1 0.2 0.6 1.1278e-16
80 1 1.1278e-16 0.6 0.2
82 1 0.2 0.6 0.2
202 1 0.5 0.7 0.3
71 1 0.3 0.7 0.1
72 1 0.4 0.6 1.1278e-16
84 1 0.4 0.6 0.2
73 1 1.1278e-16 0.8 1.1278e-16
74 1 0.1 0.9 0.1
75 1 0.2 0.8 1.1278e-16
85 1 1.1278e-16 0.8 0.2
87 1 0.2 0.8 0.2
76 1 0.3 0.9 0.1
77 1 0.4 0.8 1.1278e-16
89 1 0.4 0.8 0.2
194 1 0.5 0.9 0.1
81 1 0.1 0.7 0.3
90 1 1.40975e-16 0.6 0.4
91 1 0.2 0.6 0.4
189 1 0.5 0.7 0.1
83 1 0.3 0.7 0.3
92 1 0.4 0.6 0.4
86 1 0.1 0.9 0.3
93 1 1.1278e-16 0.8 0.4
94 1 0.2 0.8 0.4
88 1 0.3 0.9 0.3
95 1 0.4 0.8 0.4
98 1 0.1 0.7 0.5
99 1 0.3 0.7 0.5
222 1 0.5 0.9 0.5
100 1 0.1 0.9 0.5
101 1 0.3 0.9 0.5
219 1 0.5 0.7 0.5
241 1 0.5 0.7 0.9
125 1 0.4 0.8 0.8
233 1 0.5 0.9 0.7
104 1 1.1278e-16 0.6 0.6
105 1 0.1 0.7 0.7
106 1 0.2 0.6 0.6
246 1 0.5 0.9 0.9
124 1 0.3 0.9 0.9
123 1 0.2 0.8 0.8
107 1 0.3 0.7 0.7
108 1 0.4 0.6 0.6
122 1 0.1 0.9 0.9
109 1 1.1278e-16 0.8 0.6
110 1 0.1 0.9 0.7
111 1 0.2 0.8 0.6
121 1 1.1278e-16 0.8 0.8
112 1 0.3 0.9 0.7
113 1 0.4 0.8 0.6
228 1 0.5 0.7 0.7
116 1 1.1278e-16 0.6 0.8
117 1 0.1 0.7 0.9
118 1 0.2 0.6 0.8
120 1 0.4 0.6 0.8
119 1 0.3 0.7 0.9
155 1 0.8 0.4 0.4
127 1 0.6 1.1278e-16 1.1278e-16
128 1 0.7 0.1 0.1
132 1 0.6 0.2 1.1278e-16
139 1 0.6 1.1278e-16 0.2
144 1 0.6 0.2 0.2
129 1 0.8 1.1278e-16 1.1278e-16
130 1 0.9 0.1 0.1
134 1 0.8 0.2 1.1278e-16
141 1 0.8 1.1278e-16 0.2
146 1 0.8 0.2 0.2
147 1 0.9 0.3 0.3
133 1 0.7 0.3 0.1
136 1 0.6 0.4 1.1278e-16
148 1 0.6 0.4 0.2
135 1 0.9 0.3 0.1
137 1 0.8 0.4 1.1278e-16
149 1 0.8 0.4 0.2
154 1 0.6 0.4 0.4
140 1 0.7 0.1 0.3
150 1 0.6 1.1278e-16 0.4
152 1 0.6 0.2 0.4
142 1 0.9 0.1 0.3
151 1 0.8 1.1278e-16 0.4
153 1 0.8 0.2 0.4
145 1 0.7 0.3 0.3
187 1 0.7 0.5 0.1
188 1 0.9 0.5 0.1
201 1 0.9 0.5 0.3
200 1 0.7 0.5 0.3
157 1 0.7 0.1 0.5
158 1 0.9 0.1 0.5
160 1 0.7 0.3 0.5
161 1 0.9 0.3 0.5
218 1 0.9 0.5 0.5
217 1 0.7 0.5 0.5
185 1 0.8 0.4 0.8
227 1 0.9 0.5 0.7
183 1 0.9 0.3 0.9
163 1 0.6 1.1278e-16 0.6
164 1 0.7 0.1 0.7
168 1 0.6 0.2 0.6
240 1 0.9 0.5 0.9
165 1 0.8 1.1278e-16 0.6
166 1 0.9 0.1 0.7
170 1 0.8 0.2 0.6
184 1 0.6 0.4 0.8
239 1 0.7 0.5 0.9
181 1 0.7 0.3 0.9
169 1 0.7 0.3 0.7
172 1 0.6 0.4 0.6
226 1 0.7 0.5 0.7
171 1 0.9 0.3 0.7
173 1 0.8 0.4 0.6
182 1 0.8 0.2 0.8
175 1 0.6 1.1278e-16 0.8
176 1 0.7 0.1 0.9
180 1 0.6 0.2 0.8
177 1 0.8 1.1278e-16 0.8
178 1 0.9 0.1 0.9
215 1 0.8 0.8 0.4
206 1 0.9 0.7 0.3
211 1 0.9 0.9 0.3
190 1 0.6 0.6 1.1278e-16
191 1 0.7 0.7 0.1
203 1 0.6 0.6 0.2
212 1 0.6 0.6 0.4
192 1 0.8 0.6 1.1278e-16
193 1 0.9 0.7 0.1
205 1 0.8 0.6 0.2
214 1 0.6 0.8 0.4
195 1 0.6 0.8 1.1278e-16
196 1 0.7 0.9 0.1
208 1 0.6 0.8 0.2
197 1 0.8 0.8 1.1278e-16
198 1 0.9 0.9 0.1
210 1 0.8 0.8 0.2
209 1 0.7 0.9 0.3
204 1 0.7 0.7 0.3
213 1 0.8 0.6 0.4
220 1 0.7 0.7 0.5
224 1 0.9 0.9 0.5
221 1 0.9 0.7 0.5
223 1 0.7 0.9 0.5
250 1 0.9 0.9 0.9
242 1 0.6 0.6 0.8
249 1 0.8 0.8 0.8
235 1 0.7 0.9 0.7
248 1 0.7 0.9 0.9
243 1 0.7 0.7 0.9
247 1 0.6 0.8 0.8
229 1 0.6 0.6 0.6
230 1 0.7 0.7 0.7
237 1 0.9 0.9 0.7
234 1 0.6 0.8 0.6
236 1 0.8 0.8 0.6
231 1 0.8 0.6 0.6
232 1 0.9 0.7 0.7
245 1 0.9 0.7 0.9
244 1 0.8 0.6 0.8
ITEM: TIMESTEP
50
ITEM: NUMBER OF ATOMS
250
ITEM: BOX BOUNDS pp pp pp
2.1152100968032626e+00 1.7884789903196438e+01
2.1152100968032626e+00 1.7884789903196438e+01
2.1152100968032626e+00 1.7884789903196438e+01
ITEM: ATOMS id type xs ys zs
1 1 -0.00282022 0.000977798 0.00318001
2 1 0.0964138 0.0952382 0.0968445
3 1 0.20144 0.000809754 0.0041161
6 1 -0.00377412 0.198982 -0.00350969
8 1 0.198599 0.204667 -0.000730829
14 1 -0.00408853 0.00227164 0.202866
16 1 0.197384 0.00169384 0.203581
19 1 -0.00351744 0.199169 0.195378
21 1 0.203444 0.19641 0.199051
4 1 0.301196 0.099864 0.0968771
5 1 0.399779 0.00178886 0.00389875
10 1 0.400327 0.200271 -0.00419716
18 1 0.400147 -0.00357686 0.202183
23 1 0.401942 0.195767 0.19614
7 1 0.0990079 0.295485 0.104113
11 1 0.00502886 0.397355 0.00477977
12 1 0.205262 0.404522 -0.0038923
24 1 -0.000797869 0.397675 0.197809
25 1 0.200943 0.39627 0.200944
9 1 0.303538 0.304613 0.0964916
13 1 0.40464 0.40435 -0.00085784
26 1 0.400834 0.399699 0.19999
15 1 0.0972952 0.097173 0.303244
27 1 0.00367545 -0.00428456 0.398822
28 1 0.202909 0.00396953 0.405757
30 1 -0.00414384 0.19826 0.400072
31 1 0.203557 0.199531 0.398949
17 1 0.301176 0.0982239 0.299005
29 1 0.398518 0.000779357 0.402397
32 1 0.399749 0.19853 0.400699
20 1 0.099821 0.294267 0.301072
33 1 -0.00344997 0.399173 0.40292
34 1 0.195988 0.395272 0.399117
22 1 0.302275 0.296418 0.296107
35 1 0.400263 0.399739 0.398966
126 1 0.498982 0.0958232 0.0980074
131 1 0.495715 0.301041 0.100702
138 1 0.499205 0.0993799 0.297668
143 1 0.503627 0.302468 0.301522
66 1 0.100466 0.501124 0.0966271
67 1 0.300453 0.504289 0.101619
78 1 0.0979263 0.494838 0.297148
199 1 0.505287 0.502217 0.305146
79 1 0.299816 0.500494 0.30157
186 1 0.504634 0.497022 0.105024
36 1 0.096549 0.102216 0.496111
216 1 0.496924 0.498671 0.499642
37 1 0.30128 0.103519 0.504028
38 1 0.101343 0.297718 0.497529
39 1 0.301478 0.304232 0.498498
156 1 0.497331 0.098636 0.501934
97 1 0.298769 0.50119 0.495277
159 1 0.496611 0.30231 0.501035
96 1 0.0992412 0.499628 0.496367
225 1 0.498892 0.497997 0.698626
40 1 -6.73047e-05 -0.00406178 0.594295
41 1 0.0986883 0.102511 0.695751
42 1 0.198115 0.00283778 0.60163
45 1 0.00272802 0.197607 0.601171
47 1 0.204528 0.203315 0.602818
115 1 0.301883 0.502907 0.902169
43 1 0.299053 0.10219 0.698601
44 1 0.396159 0.00171806 0.602168
49 1 0.404724 0.198137 0.603061
114 1 0.10219 0.495644 0.897426
46 1 0.100503 0.298729 0.699237
50 1 0.0034143 0.400309 0.603356
51 1 0.198671 0.403063 0.602017
103 1 0.299802 0.499457 0.699028
48 1 0.300581 0.301754 0.704723
52 1 0.394763 0.398077 0.59972
53 1 -0.002844 0.0032141 0.797585
54 1 0.103347 0.0988999 0.899424
55 1 0.195144 -0.00329381 0.79903
58 1 0.000291655 0.20382 0.798314
60 1 0.203601 0.19614 0.802525
56 1 0.29841 0.0958865 0.8969
57 1 0.402453 0.000389446 0.800804
62 1 0.401415 0.200086 0.7969
59 1 0.0993363 0.2967 0.904045
63 1 0.00146907 0.400372 0.802728
64 1 0.199194 0.400715 0.79647
61 1 0.303142 0.30194 0.899011
65 1 0.403458 0.404139 0.803133
238 1 0.503715 0.500772 0.902622
162 1 0.504572 0.0998555 0.702051
102 1 0.102229 0.503177 0.702557
167 1 0.499141 0.302221 0.695962
174 1 0.502856 0.104291 0.896615
179 1 0.496974 0.299331 0.897053
207 1 0.4998 0.901486 0.299549
68 1 0.00288466 0.597727 -0.0038837
69 1 0.104473 0.701605 0.0998467
70 1 0.202293 0.60459 -0.00365942
80 1 -0.00387124 0.601946 0.198163
82 1 0.195435 0.602174 0.197698
202 1 0.499408 0.698061 0.303459
71 1 0.302629 0.697385 0.0970101
72 1 0.403933 0.597264 0.00121963
84 1 0.402813 0.597189 0.203591
73 1 0.00502143 0.796116 -0.000990304
74 1 0.101771 0.895614 0.105251
75 1 0.203986 0.80355 -0.00233844
85 1 -0.00385155 0.805055 0.198506
87 1 0.203716 0.799505 0.201466
76 1 0.296865 0.899599 0.10347
77 1 0.401661 0.804023 -0.00190312
89 1 0.401535 0.794661 0.195725
194 1 0.504357 0.897286 0.0990115
81 1 0.0967166 0.69925 0.30129
90 1 -0.00263939 0.601265 0.396274
91 1 0.19779 0.599485 0.400792
189 1 0.503052 0.697399 0.103885
83 1 0.295119 0.696924 0.298624
92 1 0.39836 0.602553 0.399442
86 1 0.102919 0.898394 0.3006
93 1 -0.00108686 0.802918 0.397873
94 1 0.196193 0.798948 0.402446
88 1 0.300323 0.896709 0.297235
95 1 0.395604 0.796968 0.400644
98 1 0.095862 0.696463 0.501811
99 1 0.300051 0.702317 0.501416
222 1 0.497747 0.900259 0.49598
100 1 0.101224 0.897317 0.499881
101 1 0.296605 0.896392 0.4985
219 1 0.497877 0.701476 0.498096
241 1 0.500258 0.703019 0.903845
125 1 0.397104 0.800977 0.79914
233 1 0.500882 0.901559 0.701468
104 1 0.0020209 0.603778 0.603928
105 1 0.0965375 0.703591 0.70192
106 1 0.199093 0.603959 0.596535
246 1 0.505315 0.904025 0.896881
124 1 0.30441 0.903445 0.898834
123 1 0.198797 0.802549 0.803886
107 1 0.296931 0.700761 0.702689
108 1 0.395851 0.602643 0.59602
122 1 0.100076 0.897427 0.905225
109 1 0.00022191 0.803941 0.59504
110 1 0.0984863 0.903277 0.702408
111 1 0.199488 0.800547 0.604921
121 1 0.00346836 0.801918 0.796632
112 1 0.300514 0.904192 0.701545
113 1 0.402968 0.798967 0.601512
228 1 0.496847 0.697905 0.703842
116 1 0.00303821 0.598109 0.799182
117 1 0.101057 0.695465 0.897095
118 1 0.201019 0.601574 0.7997
120 1 0.398717 0.598992 0.796652
119 1 0.301033 0.701581 0.898806
155 1 0.798045 0.402553 0.39483
127 1 0.604169 0.00207285 -0.000269989
128 1 0.696686 0.101606 0.100865
132 1 0.597403 0.198792 0.000839334
139 1 0.600354 0.000375613 0.204711
144 1 0.600771 0.204352 0.198074
129 1 0.796595 -0.000725419 -0.000777218
130 1 0.897814 0.098083 0.098532
134 1 0.796759 0.197896 0.000725546
141 1 0.80125 0.00161453 0.201239
146 1 0.798704 0.202077 0.198182
147 1 0.903151 0.302705 0.303827
133 1 0.695908 0.304111 0.0959423
136 1 0.597655 0.400229 -0.0018454
148 1 0.60046 0.398582 0.198762
135 1 0.89518 0.29948 0.102121
137 1 0.804472 0.393979 -0.00326697
149 1 0.798766 0.398477 0.196529
154 1 0.600714 0.395783 0.402358
140 1 0.699668 0.102488 0.30126
150 1 0.597897 -0.00418803 0.399589
152 1 0.597477 0.19587 0.400134
142 1 0.897839 0.105001 0.300238
151 1 0.804276 0.00254678 0.396678
153 1 0.796836 0.201487 0.398308
145 1 0.700884 0.29772 0.30319
187 1 0.704076 0.497362 0.10031
188 1 0.900432 0.499817 0.0971393
201 1 0.902316 0.499238 0.30019
200 1 0.70388 0.502082 0.296536
157 1 0.694846 0.0941371 0.498231
158 1 0.898189 0.0959941 0.498976
160 1 0.695674 0.295308 0.505379
161 1 0.89739 0.302275 0.503862
218 1 0.901489 0.496467 0.504637
217 1 0.699109 0.496631 0.497254
185 1 0.803989 0.401541 0.795349
227 1 0.900473 0.500946 0.696269
183 1 0.901823 0.298756 0.899619
163 1 0.600674 -0.00381848 0.604361
164 1 0.70518 0.103136 0.699901
168 1 0.601937 0.196344 0.603218
240 1 0.898986 0.496179 0.895957
165 1 0.800616 -0.00322025 0.599144
166 1 0.903392 0.0992303 0.699502
170 1 0.798543 0.194931 0.597086
184 1 0.601182 0.403834 0.80255
239 1 0.699685 0.496986 0.902292
181 1 0.69626 0.299534 0.89852
169 1 0.699858 0.301188 0.70441
172 1 0.601891 0.401432 0.601435
226 1 0.696929 0.505239 0.697216
171 1 0.899537 0.298698 0.695911
173 1 0.797396 0.399748 0.598265
182 1 0.804879 0.204028 0.80146
175 1 0.602749 0.00380431 0.798082
176 1 0.698801 0.0993145 0.897161
180 1 0.603855 0.202992 0.797891
177 1 0.796435 0.00268742 0.803593
178 1 0.901476 0.101891 0.902445
215 1 0.798956 0.798769 0.401747
206 1 0.902658 0.70488 0.299975
211 1 0.896336 0.900306 0.30425
190 1 0.598668 0.599738 0.00257955
191 1 0.696797 0.698206 0.104192
203 1 0.59953 0.597154 0.19988
212 1 0.599211 0.599589 0.401771
192 1 0.8045 0.594994 0.00116338
193 1 0.902793 0.701041 0.100664
205 1 0.798804 0.602028 0.199339
214 1 0.602592 0.798164 0.402595
195 1 0.605523 0.799911 -0.00221789
196 1 0.702558 0.902776 0.104935
208 1 0.595659 0.800868 0.203976
197 1 0.804848 0.794933 0.00315412
198 1 0.902112 0.90017 0.10254
210 1 0.795914 0.801171 0.201363
209 1 0.703677 0.901634 0.304778
204 1 0.700977 0.70146 0.298353
213 1 0.802469 0.599183 0.400888
220 1 0.699741 0.699269 0.496152
224 1 0.89527 0.895511 0.498217
221 1 0.897959 0.695259 0.500105
223 1 0.698624 0.903025 0.499229
250 1 0.902269 0.903755 0.904616
242 1 0.596132 0.603718 0.800675
249 1 0.804958 0.802583 0.802652
235 1 0.699822 0.898138 0.70309
248 1 0.701494 0.89416 0.900662
243 1 0.697201 0.694524 0.903795
247 1 0.600472 0.802642 0.796173
229 1 0.59488 0.604176 0.602406
230 1 0.696917 0.703626 0.697771
237 1 0.900822 0.902312 0.698215
234 1 0.595723 0.800769 0.595368
236 1 0.794902 0.80237 0.601162
231 1 0.795476 0.602375 0.596552
232 1 0.89862 0.699654 0.698441
245 1 0.89988 0.702398 0.895863
244 1 0.799136 0.601988 0.797159
ITEM: TIMESTEP
100
ITEM: NUMBER OF ATOMS
250
ITEM: BOX BOUNDS pp pp pp
2.1226940725328944e+00 1.7877305927466804e+01
2.1226940725328944e+00 1.7877305927466804e+01
2.1226940725328944e+00 1.7877305927466804e+01
ITEM: ATOMS id type xs ys zs
1 1 0.00163437 -0.00394248 0.000291321
2 1 0.0999893 0.0996929 0.102372
3 1 0.198562 0.000378119 0.000675987
6 1 0.000229576 0.199011 0.00263658
8 1 0.202466 0.198826 0.00169156
14 1 -0.000541839 5.75349e-05 0.202637
16 1 0.199615 -0.00075677 0.202948
19 1 -0.000667107 0.197499 0.200351
21 1 0.198773 0.197 0.197375
4 1 0.298163 0.101418 0.099515
5 1 0.404402 -0.00148118 -0.00212996
10 1 0.397986 0.200209 -0.002834
18 1 0.399393 -0.00407737 0.198963
23 1 0.401271 0.199039 0.198142
7 1 0.102732 0.298184 0.0996434
11 1 0.00216409 0.396947 -0.00131263
12 1 0.202496 0.400936 0.00196681
24 1 0.000262175 0.399057 0.201155
25 1 0.199994 0.398786 0.196606
9 1 0.299247 0.300341 0.097769
13 1 0.401252 0.401725 0.00146629
26 1 0.401282 0.40012 0.202681
15 1 0.0999914 0.100821 0.297607
27 1 -0.00117041 -0.0006823 0.400253
28 1 0.20101 -0.00196203 0.400931
30 1 -0.00198355 0.199431 0.401069
31 1 0.200529 0.198286 0.400163
17 1 0.300761 0.0968245 0.300202
29 1 0.397261 -0.00182134 0.400795
32 1 0.401323 0.200358 0.398747
20 1 0.0992229 0.294271 0.298593
33 1 0.000200291 0.398402 0.401166
34 1 0.200308 0.399465 0.397186
22 1 0.30314 0.298356 0.297957
35 1 0.397923 0.400214 0.397064
126 1 0.501583 0.0992425 0.0997271
131 1 0.500089 0.296873 0.097265
138 1 0.499575 0.100742 0.300741
143 1 0.498615 0.297435 0.299672
66 1 0.103516 0.498715 0.0994794
67 1 0.301741 0.500539 0.102123
78 1 0.0992455 0.497689 0.296992
199 1 0.500935 0.496203 0.302825
79 1 0.297374 0.496246 0.297869
186 1 0.500963 0.499782 0.102749
36 1 0.101929 0.0998855 0.501133
216 1 0.498441 0.500727 0.502418
37 1 0.298294 0.101891 0.500697
38 1 0.097994 0.298838 0.502113
39 1 0.298295 0.299433 0.499961
156 1 0.50033 0.0978794 0.501478
97 1 0.2961 0.500531 0.499419
159 1 0.500493 0.297165 0.501108
96 1 0.0975282 0.498636 0.50012
225 1 0.497538 0.502446 0.698694
40 1 -0.000749826 0.00114276 0.597171
41 1 0.10195 0.10006 0.700579
42 1 0.198287 0.00156727 0.599394
45 1 -0.00175824 0.200814 0.594796
47 1 0.20173 0.204504 0.598556
115 1 0.303467 0.503043 0.897146
43 1 0.301457 0.100164 0.70371
44 1 0.401264 -0.00238071 0.601093
49 1 0.400262 0.202286 0.599937
114 1 0.102488 0.498862 0.900623
46 1 0.1027 0.301733 0.701997
50 1 0.0014586 0.399832 0.601738
51 1 0.198954 0.402063 0.596004
103 1 0.299774 0.503615 0.698343
48 1 0.301805 0.301855 0.699356
52 1 0.39909 0.403549 0.600662
53 1 -0.000349671 0.00146342 0.802303
54 1 0.0971848 0.0975091 0.899672
55 1 0.200177 0.00177682 0.803025
58 1 0.00434918 0.199119 0.7994
60 1 0.199001 0.202155 0.799866
56 1 0.303263 0.101614 0.900365
57 1 0.401168 0.00352042 0.800118
62 1 0.402681 0.201251 0.798936
59 1 0.104272 0.300193 0.898677
63 1 0.00194095 0.39787 0.798426
64 1 0.20346 0.39861 0.802469
61 1 0.299781 0.301358 0.898857
65 1 0.399785 0.401911 0.798384
238 1 0.501105 0.505305 0.898909
162 1 0.501187 0.100715 0.699254
102 1 0.100237 0.5019 0.695962
167 1 0.502645 0.302194 0.701958
174 1 0.499902 0.0994984 0.899878
179 1 0.502646 0.302787 0.897736
207 1 0.497426 0.895278 0.301189
68 1 0.00165953 0.597673 -0.00249414
69 1 0.100754 0.70004 0.0983231
70 1 0.202498 0.600887 -0.00106641
80 1 0.000958883 0.59956 0.196047
82 1 0.199369 0.595662 0.200554
202 1 0.499595 0.701273 0.300961
71 1 0.304207 0.701152 0.0992862
72 1 0.403608 0.604064 0.0013401
84 1 0.39912 0.597512 0.201505
73 1 0.00217935 0.798333 -0.0008388
74 1 0.0998537 0.901444 0.101617
75 1 0.20479 0.800396 0.00211304
85 1 0.00180521 0.799358 0.202313
87 1 0.198136 0.796746 0.200207
76 1 0.305082 0.89996 0.0994932
77 1 0.405449 0.801572 0.000332888
89 1 0.399573 0.797517 0.20152
194 1 0.502186 0.899551 0.0989669
81 1 0.0980241 0.698905 0.297256
90 1 -0.000770413 0.597437 0.40118
91 1 0.19498 0.598385 0.395931
189 1 0.501101 0.698944 0.100259
83 1 0.298688 0.697748 0.2996
92 1 0.396896 0.598084 0.400321
86 1 0.100497 0.898994 0.301686
93 1 -0.00145723 0.797512 0.400568
94 1 0.198071 0.797234 0.401126
88 1 0.299956 0.898035 0.30421
95 1 0.398404 0.801157 0.39626
98 1 0.0975128 0.701985 0.498446
99 1 0.293049 0.700839 0.499857
222 1 0.494876 0.899632 0.50169
100 1 0.100209 0.900489 0.500858
101 1 0.299984 0.902398 0.50381
219 1 0.497528 0.698821 0.501118
241 1 0.499915 0.703278 0.901187
125 1 0.402465 0.802531 0.800706
233 1 0.498281 0.899698 0.698352
104 1 -0.00271153 0.598604 0.597778
105 1 0.100423 0.703124 0.698813
106 1 0.198237 0.600531 0.601519
246 1 0.503764 0.902717 0.901357
124 1 0.301459 0.90265 0.902525
123 1 0.200679 0.802079 0.801129
107 1 0.297804 0.70326 0.6992
108 1 0.397047 0.599038 0.600682
122 1 0.100337 0.90315 0.902753
109 1 -0.00416099 0.798628 0.600397
110 1 0.0984732 0.902481 0.698874
111 1 0.198646 0.803744 0.602744
121 1 -0.00234069 0.803226 0.801567
112 1 0.298251 0.90094 0.699885
113 1 0.39533 0.80325 0.601441
228 1 0.4957 0.703402 0.699576
116 1 -0.00347048 0.600739 0.799422
117 1 0.101086 0.701289 0.899866
118 1 0.201593 0.600302 0.797288
120 1 0.400188 0.602078 0.802016
119 1 0.304819 0.702701 0.900329
155 1 0.799221 0.398154 0.402338
127 1 0.600115 -0.00191353 0.000184604
128 1 0.698519 0.10143 0.101482
132 1 0.597315 0.202223 -0.00221517
139 1 0.601125 0.00103104 0.199165
144 1 0.597738 0.199034 0.200459
129 1 0.799589 -0.00238853 0.00270626
130 1 0.894215 0.101044 0.100371
134 1 0.796081 0.198754 -0.00156114
141 1 0.797692 0.00332617 0.200491
146 1 0.796174 0.201765 0.200167
147 1 0.897498 0.299939 0.299046
133 1 0.697693 0.298293 0.0986913
136 1 0.601871 0.398166 0.00092778
148 1 0.602477 0.399584 0.204009
135 1 0.900471 0.297412 0.0978396
137 1 0.800435 0.398373 -0.00426289
149 1 0.801574 0.400424 0.199939
154 1 0.601236 0.398745 0.401166
140 1 0.697251 0.0996391 0.299248
150 1 0.597926 0.000285982 0.401307
152 1 0.596297 0.197698 0.402528
142 1 0.89868 0.102054 0.299012
151 1 0.797551 0.00159241 0.402413
153 1 0.798042 0.201618 0.403875
145 1 0.699654 0.302715 0.298786
187 1 0.701788 0.499952 0.0964142
188 1 0.903802 0.497169 0.0989994
201 1 0.899941 0.501738 0.296719
200 1 0.700465 0.498938 0.300123
157 1 0.699047 0.097475 0.500592
158 1 0.898191 0.0993593 0.49912
160 1 0.698085 0.296515 0.500628
161 1 0.898279 0.296034 0.499771
218 1 0.898867 0.501035 0.499237
217 1 0.697795 0.500172 0.499196
185 1 0.799162 0.402279 0.796865
227 1 0.899062 0.501444 0.698501
183 1 0.900093 0.300913 0.89911
163 1 0.59835 -0.000776593 0.599221
164 1 0.704577 0.0985987 0.699726
168 1 0.599729 0.198778 0.599542
240 1 0.903203 0.501106 0.898407
165 1 0.798834 -0.000383092 0.600925
166 1 0.899485 0.100553 0.69789
170 1 0.80211 0.198551 0.599177
184 1 0.601395 0.403506 0.796849
239 1 0.704493 0.500227 0.898199
181 1 0.702006 0.300244 0.900133
169 1 0.701977 0.304085 0.697819
172 1 0.596337 0.400552 0.600822
226 1 0.699233 0.503225 0.700644
171 1 0.901071 0.300841 0.698284
173 1 0.798035 0.399854 0.598504
182 1 0.801545 0.200278 0.798531
175 1 0.603828 0.000692002 0.80151
176 1 0.701783 0.102995 0.901551
180 1 0.600546 0.203148 0.799837
177 1 0.804653 0.000260811 0.799379
178 1 0.898767 0.0991592 0.897294
215 1 0.79885 0.798082 0.401138
206 1 0.89568 0.700021 0.298762
211 1 0.901522 0.90263 0.297838
190 1 0.604781 0.597572 0.00281254
191 1 0.70324 0.70041 0.0997689
203 1 0.603051 0.599745 0.205404
212 1 0.602579 0.597884 0.402219
192 1 0.801655 0.599215 -0.00325506
193 1 0.901607 0.698749 0.0977327
205 1 0.803803 0.600263 0.199467
214 1 0.595894 0.799957 0.397781
195 1 0.602495 0.800443 0.00464365
196 1 0.700208 0.898297 0.101957
208 1 0.602533 0.799639 0.202445
197 1 0.802113 0.798104 0.00218545
198 1 0.898375 0.900092 0.100654
210 1 0.800012 0.801363 0.201394
209 1 0.697216 0.90136 0.301527
204 1 0.698839 0.698885 0.302376
213 1 0.799088 0.598401 0.396311
220 1 0.697 0.698856 0.501243
224 1 0.898668 0.898282 0.499876
221 1 0.899489 0.700138 0.500581
223 1 0.697907 0.897446 0.50157
250 1 0.901845 0.899079 0.900409
242 1 0.599996 0.601455 0.802194
249 1 0.800215 0.800986 0.800784
235 1 0.70236 0.903314 0.700405
248 1 0.704971 0.898501 0.903033
243 1 0.704458 0.697837 0.899334
247 1 0.599681 0.799282 0.801397
229 1 0.595304 0.600803 0.59719
230 1 0.697584 0.702001 0.701588
237 1 0.898521 0.899648 0.701993
234 1 0.598061 0.800707 0.600581
236 1 0.79824 0.798324 0.599945
231 1 0.79647 0.599468 0.599796
232 1 0.897269 0.703978 0.697524
245 1 0.902997 0.696779 0.89976
244 1 0.798423 0.601171 0.798834
ITEM: TIMESTEP
150
ITEM: NUMBER OF ATOMS
250
ITEM: BOX BOUNDS pp pp pp
2.1191710980545926e+00 1.7880828901945080e+01
2.1191710980545926e+00 1.7880828901945080e+01
2.1191710980545926e+00 1.7880828901945080e+01
ITEM: ATOMS id type xs ys zs
1 1 -0.000959478 0.0012721 0.0014057
2 1 0.10013 0.101868 0.102058
3 1 0.202781 -0.000190363 -0.000215702
6 1 0.00320767 0.19727 0.00102637
8 1 0.199252 0.19522 -0.00241809
14 1 0.00221335 -0.0023323 0.19639
16 1 0.20404 -0.00657621 0.196376
19 1 -0.00065771 0.200675 0.203725
21 1 0.19935 0.202293 0.202638
4 1 0.302534 0.0959718 0.103164
5 1 0.400105 0.0011734 -0.0020073
10 1 0.402356 0.201308 0.00302675
18 1 0.401389 0.00316823 0.198963
23 1 0.395964 0.200424 0.201168
7 1 0.0994065 0.302233 0.0949052
11 1 -0.00125826 0.399799 -0.00584541
12 1 0.199339 0.396718 0.000556657
24 1 0.00178475 0.397383 0.199678
25 1 0.200247 0.397777 0.19975
9 1 0.300554 0.295263 0.103232
13 1 0.399161 0.398563 -0.000787501
26 1 0.401445 0.396857 0.196909
15 1 0.101994 0.0987206 0.301169
27 1 -0.00406298 0.00406973 0.401236
28 1 0.194289 -0.0038927 0.396177
30 1 0.0033873 0.199437 0.397794
31 1 0.196313 0.199835 0.39865
17 1 0.299072 0.100776 0.300424
29 1 0.401072 -3.91102e-05 0.398463
32 1 0.397373 0.198973 0.400418
20 1 0.100474 0.304559 0.29924
33 1 0.00120637 0.397964 0.39614
34 1 0.200106 0.399843 0.397905
22 1 0.294649 0.298237 0.301431
35 1 0.399599 0.398014 0.40497
126 1 0.498652 0.102571 0.100745
131 1 0.503154 0.301047 0.0997603
138 1 0.497755 0.0947907 0.301553
143 1 0.498269 0.296705 0.298748
66 1 0.100562 0.497355 0.0998373
67 1 0.303521 0.496622 0.0953152
78 1 0.0988166 0.500062 0.301755
199 1 0.494785 0.498383 0.297785
79 1 0.299818 0.497587 0.298744
186 1 0.500202 0.501674 0.0968538
36 1 0.101689 0.0981978 0.501625
216 1 0.498308 0.499495 0.49794
37 1 0.301285 0.0968779 0.49848
38 1 0.0989693 0.302248 0.499369
39 1 0.299432 0.298599 0.497781
156 1 0.497954 0.100259 0.498965
97 1 0.297777 0.500127 0.501208
159 1 0.49961 0.299581 0.499356
96 1 0.0985309 0.500662 0.499834
225 1 0.500408 0.507097 0.703525
40 1 -0.00188912 0.0038588 0.606636
41 1 0.101685 0.10032 0.702747
42 1 0.202882 0.00158196 0.602202
45 1 0.00028533 0.201173 0.602303
47 1 0.194989 0.19719 0.599972
115 1 0.301016 0.500097 0.900413
43 1 0.301529 0.101512 0.699572
44 1 0.40024 0.00435688 0.600125
49 1 0.396258 0.201763 0.597652
114 1 0.101843 0.505507 0.898293
46 1 0.101695 0.302419 0.697992
50 1 -0.00679773 0.399376 0.594703
51 1 0.201508 0.398254 0.598901
103 1 0.297743 0.501919 0.700752
48 1 0.30125 0.301267 0.694636
52 1 0.402415 0.401376 0.597497
53 1 0.00434818 -0.00280155 0.799853
54 1 0.0990572 0.104083 0.904044
55 1 0.205932 0.00541634 0.802193
58 1 -0.00124858 0.197391 0.800259
60 1 0.201861 0.202727 0.798051
56 1 0.300306 0.104936 0.903356
57 1 0.401432 -0.000537767 0.799196
62 1 0.400051 0.203963 0.802163
59 1 0.101054 0.301549 0.898801
63 1 0.000952136 0.401849 0.79696
64 1 0.202155 0.404803 0.799769
61 1 0.302263 0.300518 0.900737
65 1 0.399814 0.400013 0.797628
238 1 0.500518 0.500267 0.90015
162 1 0.498926 0.101241 0.699469
102 1 0.0969594 0.498503 0.700332
167 1 0.501236 0.29999 0.701763
174 1 0.502027 0.0996318 0.901597
179 1 0.50295 0.30597 0.901932
207 1 0.499452 0.901899 0.299276
68 1 0.00252595 0.599539 0.0022121
69 1 0.0996956 0.696985 0.097735
70 1 0.202949 0.596759 0.00228459
80 1 0.00516367 0.596367 0.200427
82 1 0.205141 0.598196 0.198322
202 1 0.498622 0.694655 0.298349
71 1 0.29876 0.701402 0.104333
72 1 0.400154 0.602018 0.000656493
84 1 0.400717 0.601397 0.199537
73 1 -0.00150407 0.802721 0.00355981
74 1 0.100928 0.901918 0.0974959
75 1 0.199021 0.798351 0.00317617
85 1 0.00141637 0.794692 0.199655
87 1 0.198817 0.799479 0.199185
76 1 0.302679 0.900617 0.0993437
77 1 0.402412 0.798531 0.0033412
89 1 0.399081 0.802817 0.203505
194 1 0.498951 0.900698 0.105276
81 1 0.100014 0.697115 0.298447
90 1 -0.000826199 0.597936 0.398549
91 1 0.198852 0.598097 0.399616
189 1 0.503645 0.700892 0.101479
83 1 0.301889 0.699118 0.301502
92 1 0.398299 0.597052 0.400995
86 1 0.0960156 0.899815 0.301167
93 1 -0.00225222 0.796918 0.400855
94 1 0.200733 0.800167 0.397374
88 1 0.296496 0.899602 0.301122
95 1 0.398485 0.797495 0.405177
98 1 0.100063 0.701527 0.499004
99 1 0.297321 0.697806 0.498306
222 1 0.501061 0.896513 0.503059
100 1 0.0954527 0.902262 0.500342
101 1 0.298415 0.903236 0.501583
219 1 0.493869 0.70007 0.500621
241 1 0.507374 0.699267 0.89806
125 1 0.401681 0.804815 0.802466
233 1 0.501298 0.901706 0.702582
104 1 -0.00470886 0.59827 0.596676
105 1 0.0987164 0.698763 0.698872
106 1 0.195796 0.600363 0.598746
246 1 0.499959 0.896675 0.901072
124 1 0.299085 0.899029 0.901303
123 1 0.200812 0.800919 0.799603
107 1 0.301143 0.702423 0.699145
108 1 0.398302 0.60315 0.602496
122 1 0.103247 0.90001 0.894977
109 1 -0.00101353 0.79858 0.604993
110 1 0.0986126 0.899555 0.700314
111 1 0.194774 0.801454 0.594909
121 1 -0.000558269 0.797829 0.802865
112 1 0.297656 0.901197 0.704322
113 1 0.393658 0.798731 0.596858
228 1 0.500928 0.703291 0.696902
116 1 0.00132176 0.602874 0.795402
117 1 0.103744 0.705003 0.900116
118 1 0.197147 0.601903 0.801761
120 1 0.402148 0.60683 0.801597
119 1 0.299818 0.702544 0.900879
155 1 0.802309 0.397917 0.40336
127 1 0.601328 0.000145999 0.000932536
128 1 0.699779 0.0980543 0.097429
132 1 0.60151 0.199021 -0.00247937
139 1 0.596285 -0.00268673 0.197782
144 1 0.597739 0.196747 0.202364
129 1 0.804115 0.00111077 0.00073673
130 1 0.902332 0.100592 0.100144
134 1 0.804705 0.202406 -0.00101306
141 1 0.797305 -0.00186845 0.202132
146 1 0.798841 0.199185 0.202804
147 1 0.896524 0.297492 0.296111
133 1 0.704869 0.297349 0.103606
136 1 0.60265 0.40298 0.000209459
148 1 0.599165 0.400587 0.198655
135 1 0.903635 0.299759 0.0969829
137 1 0.799242 0.405359 0.00316904
149 1 0.801644 0.401428 0.199619
154 1 0.596243 0.400775 0.400744
140 1 0.698374 0.100326 0.302569
150 1 0.597689 0.000632353 0.400353
152 1 0.602952 0.203224 0.399298
142 1 0.897731 0.0961759 0.300991
151 1 0.793493 -0.00482132 0.402317
153 1 0.798748 0.196195 0.39857
145 1 0.696971 0.29884 0.299152
187 1 0.700733 0.500196 0.10224
188 1 0.902124 0.497074 0.098103
201 1 0.89905 0.497945 0.299876
200 1 0.698859 0.496832 0.302716
157 1 0.702812 0.104055 0.503354
158 1 0.901256 0.101099 0.499354
160 1 0.701485 0.304389 0.495764
161 1 0.901479 0.300754 0.49553
218 1 0.895263 0.500596 0.494029
217 1 0.69948 0.500519 0.504384
185 1 0.800368 0.399253 0.80128
227 1 0.898767 0.500181 0.70156
183 1 0.902404 0.298615 0.89668
163 1 0.599977 0.00242706 0.59835
164 1 0.693698 0.100433 0.701491
168 1 0.599576 0.202769 0.600207
240 1 0.904003 0.499985 0.900596
165 1 0.79999 0.000625432 0.599327
166 1 0.901592 0.101726 0.69949
170 1 0.799241 0.204965 0.603287
184 1 0.599527 0.40047 0.799104
239 1 0.700814 0.502441 0.89659
181 1 0.70418 0.302682 0.896774
169 1 0.70051 0.298444 0.695088
172 1 0.598002 0.399898 0.597291
226 1 0.699544 0.498239 0.698771
171 1 0.902503 0.301445 0.703118
173 1 0.801907 0.401159 0.599787
182 1 0.797389 0.198644 0.79645
175 1 0.600819 -0.00213065 0.801786
176 1 0.700885 0.0984571 0.901441
180 1 0.600768 0.197661 0.799868
177 1 0.803664 -0.00202251 0.799869
178 1 0.89941 0.0996938 0.900665
215 1 0.797399 0.802271 0.39798
206 1 0.899104 0.695801 0.299395
211 1 0.89953 0.89963 0.298896
190 1 0.603701 0.601598 -0.00102599
191 1 0.706141 0.69889 0.099218
203 1 0.601959 0.600999 0.2003
212 1 0.594978 0.599753 0.398736
192 1 0.80158 0.601754 -0.000849715
193 1 0.901035 0.697861 0.0992182
205 1 0.801158 0.597195 0.195603
214 1 0.595927 0.800119 0.402399
195 1 0.600194 0.796716 0.00185633
196 1 0.699493 0.898712 0.0982849
208 1 0.604072 0.797364 0.197423
197 1 0.799402 0.803246 -0.0026518
198 1 0.900084 0.899012 0.0995818