ITEM: TIMESTEP
0
ITEM: NUMBER OF ATOMS
250
ITEM: BOX BOUNDS pp pp pp
2.1272791552764687e+00 1.7872720844723222e+01
2.1272791552764687e+00 1.7872720844723222e+01
2.1272791552764687e+00 1.7872720844723222e+01
ITEM: ATOMS id type x y z 
1 1 2.12728 2.12728 2.12728 
2 1 3.70182 3.70182 3.70182 
3 1 5.27637 2.12728 2.12728 
11 1 2.12728 5.27637 2.12728 
13 1 5.27637 5.27637 2.12728 
26 1 2.12728 2.12728 5.27637 
28 1 5.27637 2.12728 5.27637 
36 1 2.12728 5.27637 5.27637 
38 1 5.27637 5.27637 5.27637 
4 1 6.85091 3.70182 3.70182 
12 1 3.70182 6.85091 3.70182 
21 1 2.12728 8.42546 2.12728 
22 1 5.27637 8.42546 2.12728 
46 1 2.12728 8.42546 5.27637 
47 1 5.27637 8.42546 5.27637 
14 1 6.85091 6.85091 3.70182 
27 1 3.70182 3.70182 6.85091 
51 1 2.12728 2.12728 8.42546 
52 1 5.27637 2.12728 8.42546 
56 1 2.12728 5.27637 8.42546 
57 1 5.27637 5.27637 8.42546 
29 1 6.85091 3.70182 6.85091 
37 1 3.70182 6.85091 6.85091 
61 1 2.12728 8.42546 8.42546 
62 1 5.27637 8.42546 8.42546 
39 1 6.85091 6.85091 6.85091 
126 1 3.70182 10 3.70182 
127 1 6.85091 10 3.70182 
151 1 3.70182 10 6.85091 
152 1 6.85091 10 6.85091 
66 1 3.70182 3.70182 10 
67 1 6.85091 3.70182 10 
71 1 3.70182 6.85091 10 
72 1 6.85091 6.85091 10 
187 1 6.85091 10 10 
186 1 3.70182 10 10 
5 1 8.42546 2.12728 2.12728 
15 1 8.42546 5.27637 2.12728 
30 1 8.42546 2.12728 5.27637 
40 1 8.42546 5.27637 5.27637 
6 1 10 3.70182 3.70182 
7 1 11.5745 2.12728 2.12728 
17 1 11.5745 5.27637 2.12728 
32 1 11.5745 2.12728 5.27637 
42 1 11.5745 5.27637 5.27637 
23 1 8.42546 8.42546 2.12728 
48 1 8.42546 8.42546 5.27637 
16 1 10 6.85091 3.70182 
24 1 11.5745 8.42546 2.12728 
49 1 11.5745 8.42546 5.27637 
53 1 8.42546 2.12728 8.42546 
58 1 8.42546 5.27637 8.42546 
31 1 10 3.70182 6.85091 
54 1 11.5745 2.12728 8.42546 
59 1 11.5745 5.27637 8.42546 
63 1 8.42546 8.42546 8.42546 
41 1 10 6.85091 6.85091 
64 1 11.5745 8.42546 8.42546 
128 1 10 10 3.70182 
153 1 10 10 6.85091 
68 1 10 3.70182 10 
73 1 10 6.85091 10 
188 1 10 10 10 
8 1 13.1491 3.70182 3.70182 
9 1 14.7236 2.12728 2.12728 
10 1 16.2982 3.70182 3.70182 
19 1 14.7236 5.27637 2.12728 
34 1 14.7236 2.12728 5.27637 
44 1 14.7236 5.27637 5.27637 
18 1 13.1491 6.85091 3.70182 
20 1 16.2982 6.85091 3.70182 
25 1 14.7236 8.42546 2.12728 
50 1 14.7236 8.42546 5.27637 
33 1 13.1491 3.70182 6.85091 
35 1 16.2982 3.70182 6.85091 
55 1 14.7236 2.12728 8.42546 
60 1 14.7236 5.27637 8.42546 
43 1 13.1491 6.85091 6.85091 
45 1 16.2982 6.85091 6.85091 
65 1 14.7236 8.42546 8.42546 
129 1 13.1491 10 3.70182 
130 1 16.2982 10 3.70182 
154 1 13.1491 10 6.85091 
155 1 16.2982 10 6.85091 
69 1 13.1491 3.70182 10 
70 1 16.2982 3.70182 10 
190 1 16.2982 10 10 
74 1 13.1491 6.85091 10 
189 1 13.1491 10 10 
75 1 16.2982 6.85091 10 
76 1 2.12728 2.12728 11.5745 
77 1 3.70182 3.70182 13.1491 
78 1 5.27637 2.12728 11.5745 
86 1 2.12728 5.27637 11.5745 
88 1 5.27637 5.27637 11.5745 
79 1 6.85091 3.70182 13.1491 
227 1 6.85091 10 16.2982 
226 1 3.70182 10 16.2982 
87 1 3.70182 6.85091 13.1491 
96 1 2.12728 8.42546 11.5745 
97 1 5.27637 8.42546 11.5745 
89 1 6.85091 6.85091 13.1491 
202 1 6.85091 10 13.1491 
201 1 3.70182 10 13.1491 
101 1 2.12728 2.12728 14.7236 
102 1 3.70182 3.70182 16.2982 
103 1 5.27637 2.12728 14.7236 
111 1 2.12728 5.27637 14.7236 
113 1 5.27637 5.27637 14.7236 
104 1 6.85091 3.70182 16.2982 
112 1 3.70182 6.85091 16.2982 
121 1 2.12728 8.42546 14.7236 
122 1 5.27637 8.42546 14.7236 
114 1 6.85091 6.85091 16.2982 
80 1 8.42546 2.12728 11.5745 
90 1 8.42546 5.27637 11.5745 
228 1 10 10 16.2982 
81 1 10 3.70182 13.1491 
82 1 11.5745 2.12728 11.5745 
92 1 11.5745 5.27637 11.5745 
98 1 8.42546 8.42546 11.5745 
203 1 10 10 13.1491 
91 1 10 6.85091 13.1491 
99 1 11.5745 8.42546 11.5745 
105 1 8.42546 2.12728 14.7236 
115 1 8.42546 5.27637 14.7236 
106 1 10 3.70182 16.2982 
107 1 11.5745 2.12728 14.7236 
117 1 11.5745 5.27637 14.7236 
123 1 8.42546 8.42546 14.7236 
116 1 10 6.85091 16.2982 
124 1 11.5745 8.42546 14.7236 
229 1 13.1491 10 16.2982 
230 1 16.2982 10 16.2982 
83 1 13.1491 3.70182 13.1491 
84 1 14.7236 2.12728 11.5745 
85 1 16.2982 3.70182 13.1491 
94 1 14.7236 5.27637 11.5745 
205 1 16.2982 10 13.1491 
204 1 13.1491 10 13.1491 
93 1 13.1491 6.85091 13.1491 
95 1 16.2982 6.85091 13.1491 
100 1 14.7236 8.42546 11.5745 
108 1 13.1491 3.70182 16.2982 
109 1 14.7236 2.12728 14.7236 
110 1 16.2982 3.70182 16.2982 
119 1 14.7236 5.27637 14.7236 
118 1 13.1491 6.85091 16.2982 
120 1 16.2982 6.85091 16.2982 
125 1 14.7236 8.42546 14.7236 
131 1 2.12728 11.5745 2.12728 
132 1 3.70182 13.1491 3.70182 
133 1 5.27637 11.5745 2.12728 
156 1 2.12728 11.5745 5.27637 
158 1 5.27637 11.5745 5.27637 
134 1 6.85091 13.1491 3.70182 
141 1 2.12728 14.7236 2.12728 
142 1 3.70182 16.2982 3.70182 
143 1 5.27637 14.7236 2.12728 
166 1 2.12728 14.7236 5.27637 
168 1 5.27637 14.7236 5.27637 
144 1 6.85091 16.2982 3.70182 
157 1 3.70182 13.1491 6.85091 
176 1 2.12728 11.5745 8.42546 
177 1 5.27637 11.5745 8.42546 
169 1 6.85091 16.2982 6.85091 
159 1 6.85091 13.1491 6.85091 
182 1 5.27637 14.7236 8.42546 
181 1 2.12728 14.7236 8.42546 
167 1 3.70182 16.2982 6.85091 
191 1 3.70182 13.1491 10 
192 1 6.85091 13.1491 10 
196 1 3.70182 16.2982 10 
197 1 6.85091 16.2982 10 
135 1 8.42546 11.5745 2.12728 
160 1 8.42546 11.5745 5.27637 
184 1 11.5745 14.7236 8.42546 
136 1 10 13.1491 3.70182 
137 1 11.5745 11.5745 2.12728 
162 1 11.5745 11.5745 5.27637 
171 1 10 16.2982 6.85091 
145 1 8.42546 14.7236 2.12728 
170 1 8.42546 14.7236 5.27637 
146 1 10 16.2982 3.70182 
147 1 11.5745 14.7236 2.12728 
172 1 11.5745 14.7236 5.27637 
183 1 8.42546 14.7236 8.42546 
178 1 8.42546 11.5745 8.42546 
161 1 10 13.1491 6.85091 
179 1 11.5745 11.5745 8.42546 
193 1 10 13.1491 10 
198 1 10 16.2982 10 
185 1 14.7236 14.7236 8.42546 
175 1 16.2982 16.2982 6.85091 
173 1 13.1491 16.2982 6.85091 
138 1 13.1491 13.1491 3.70182 
139 1 14.7236 11.5745 2.12728 
140 1 16.2982 13.1491 3.70182 
164 1 14.7236 11.5745 5.27637 
148 1 13.1491 16.2982 3.70182 
149 1 14.7236 14.7236 2.12728 
150 1 16.2982 16.2982 3.70182 
174 1 14.7236 14.7236 5.27637 
163 1 13.1491 13.1491 6.85091 
165 1 16.2982 13.1491 6.85091 
180 1 14.7236 11.5745 8.42546 
194 1 13.1491 13.1491 10 
195 1 16.2982 13.1491 10 
199 1 13.1491 16.2982 10 
200 1 16.2982 16.2982 10 
206 1 2.12728 11.5745 11.5745 
207 1 3.70182 13.1491 13.1491 
208 1 5.27637 11.5745 11.5745 
209 1 6.85091 13.1491 13.1491 
244 1 6.85091 16.2982 16.2982 
243 1 5.27637 14.7236 14.7236 
242 1 3.70182 16.2982 16.2982 
234 1 6.85091 13.1491 16.2982 
241 1 2.12728 14.7236 14.7236 
216 1 2.12728 14.7236 11.5745 
217 1 3.70182 16.2982 13.1491 
218 1 5.27637 14.7236 11.5745 
233 1 5.27637 11.5745 14.7236 
219 1 6.85091 16.2982 13.1491 
232 1 3.70182 13.1491 16.2982 
231 1 2.12728 11.5745 14.7236 
236 1 10 13.1491 16.2982 
237 1 11.5745 11.5745 14.7236 
247 1 11.5745 14.7236 14.7236 
210 1 8.42546 11.5745 11.5745 
246 1 10 16.2982 16.2982 
245 1 8.42546 14.7236 14.7236 
235 1 8.42546 11.5745 14.7236 
211 1 10 13.1491 13.1491 
212 1 11.5745 11.5745 11.5745 
220 1 8.42546 14.7236 11.5745 
221 1 10 16.2982 13.1491 
222 1 11.5745 14.7236 11.5745 
250 1 16.2982 16.2982 16.2982 
249 1 14.7236 14.7236 14.7236 
248 1 13.1491 16.2982 16.2982 
238 1 13.1491 13.1491 16.2982 
213 1 13.1491 13.1491 13.1491 
214 1 14.7236 11.5745 11.5745 
215 1 16.2982 13.1491 13.1491 
239 1 14.7236 11.5745 14.7236 
223 1 13.1491 16.2982 13.1491 
240 1 16.2982 13.1491 16.2982 
224 1 14.7236 14.7236 11.5745 
225 1 16.2982 16.2982 13.1491 
ITEM: TIMESTEP
50
ITEM: NUMBER OF ATOMS
250
ITEM: BOX BOUNDS pp pp pp
2.1272791552764687e+00 1.7872720844723222e+01
2.1272791552764687e+00 1.7872720844723222e+01
2.1272791552764687e+00 1.7872720844723222e+01
ITEM: ATOMS id type x y z 
1 1 2.06765 2.16523 2.17476 
2 1 3.66593 3.65029 3.65722 
3 1 5.30451 2.15045 2.18533 
11 1 2.19183 5.28195 2.19099 
13 1 5.34434 5.33359 2.10937 
26 1 2.11453 2.12839 5.25554 
28 1 5.3123 2.17325 5.34609 
36 1 2.09022 5.29533 5.21909 
38 1 5.28495 5.25833 5.21375 
4 1 6.85571 3.69129 3.68848 
12 1 3.78261 6.8995 3.66821 
21 1 2.17038 8.40436 2.1129 
22 1 5.3109 8.41875 2.06496 
46 1 2.14096 8.38388 5.254 
47 1 5.32541 8.43768 5.30547 
14 1 6.81334 6.90542 3.71506 
27 1 3.74583 3.67942 6.81314 
51 1 2.11739 2.14945 8.47084 
52 1 5.20936 2.06982 8.42022 
56 1 2.11889 5.22524 8.3662 
57 1 5.30825 5.24944 8.39464 
29 1 6.86896 3.74918 6.87593 
37 1 3.7637 6.86204 6.88999 
61 1 2.20156 8.46674 8.3939 
62 1 5.30688 8.4425 8.40359 
39 1 6.89624 6.91073 6.82827 
126 1 3.69261 9.95031 3.64597 
127 1 6.90222 10.0322 3.67792 
151 1 3.76266 10.0139 6.78948 
152 1 6.85108 10.0002 6.87313 
66 1 3.69233 3.712 9.94548 
67 1 6.85661 3.71945 9.987 
71 1 3.7227 6.79429 9.95946 
72 1 6.88209 6.79963 9.98554 
187 1 6.91194 9.95147 10.0398 
186 1 3.7636 9.95152 10.0449 
5 1 8.40754 2.139 2.16743 
15 1 8.4117 5.26167 2.20448 
30 1 8.38117 2.08548 5.28485 
40 1 8.40867 5.21177 5.22608 
6 1 9.97268 3.68265 3.63341 
7 1 11.5528 2.09374 2.16911 
17 1 11.5657 5.2707 2.11223 
32 1 11.5425 2.10885 5.28853 
42 1 11.5458 5.30492 5.31029 
23 1 8.42291 8.33996 2.08961 
48 1 8.43726 8.43632 5.31452 
16 1 9.96613 6.85983 3.72405 
24 1 11.5652 8.36461 2.10778 
49 1 11.6323 8.40481 5.28613 
53 1 8.39852 2.16599 8.36348 
58 1 8.42387 5.34328 8.36999 
31 1 10.0317 3.70997 6.80238 
54 1 11.6286 2.1274 8.43511 
59 1 11.558 5.23721 8.48908 
63 1 8.44453 8.44951 8.48906 
41 1 9.96755 6.88695 6.79116 
64 1 11.5543 8.44414 8.37549 
128 1 9.95488 10.0125 3.69597 
153 1 9.95177 10.0271 6.78668 
68 1 10.0195 3.66829 9.95283 
73 1 10.0729 6.8227 9.9914 
188 1 10.0009 9.994 9.96292 
8 1 13.0959 3.75503 3.6648 
9 1 14.7424 2.19823 2.08704 
10 1 16.2646 3.70575 3.69054 
19 1 14.6749 5.29123 2.06157 
34 1 14.6437 2.09044 5.24299 
44 1 14.6523 5.30996 5.31459 
18 1 13.1563 6.8366 3.72753 
20 1 16.3055 6.79416 3.71087 
25 1 14.7473 8.3547 2.16449 
50 1 14.7693 8.43682 5.32034 
33 1 13.1074 3.70913 6.87208 
35 1 16.3059 3.67586 6.83574 
55 1 14.6785 2.06522 8.3884 
60 1 14.7672 5.21765 8.45714 
43 1 13.1442 6.86317 6.8648 
45 1 16.3577 6.82202 6.9118 
65 1 14.7876 8.45733 8.47818 
129 1 13.1062 9.96978 3.70431 
130 1 16.2985 9.94584 3.64801 
154 1 13.1533 9.94562 6.90156 
155 1 16.2938 10.0152 6.77236 
69 1 13.2341 3.70722 10.022 
70 1 16.3303 3.76016 9.97463 
190 1 16.2933 10.0302 10.0232 
74 1 13.1951 6.7931 10.0345 
189 1 13.1981 9.97086 10.0583 
75 1 16.3536 6.893 9.96968 
76 1 2.05423 2.13538 11.645 
77 1 3.69506 3.73903 13.1353 
78 1 5.23301 2.06775 11.5503 
86 1 2.16265 5.28004 11.5841 
88 1 5.25808 5.21518 11.5033 
79 1 6.84703 3.72701 13.182 
227 1 6.83272 10.0041 16.2819 
226 1 3.63398 10.0862 16.2415 
87 1 3.77975 6.85634 13.1593 
96 1 2.13705 8.42778 11.5185 
97 1 5.28159 8.40988 11.5088 
89 1 6.86657 6.76897 13.0757 
202 1 6.82636 9.9197 13.1953 
201 1 3.74383 9.98318 13.1814 
101 1 2.06498 2.09277 14.6912 
102 1 3.73641 3.74594 16.3619 
103 1 5.23039 2.1021 14.7277 
111 1 2.13902 5.25524 14.7821 
113 1 5.32323 5.21161 14.7175 
104 1 6.88648 3.75542 16.3734 
112 1 3.70643 6.90855 16.3173 
121 1 2.17693 8.43515 14.6492 
122 1 5.30545 8.34898 14.7628 
114 1 6.89857 6.80601 16.2395 
80 1 8.35884 2.172 11.5602 
90 1 8.41561 5.28213 11.5045 
228 1 9.97931 9.95656 16.3513 
81 1 9.92177 3.68089 13.1565 
82 1 11.5054 2.19289 11.5439 
92 1 11.5475 5.32073 11.5781 
98 1 8.4019 8.35931 11.622 
203 1 9.96772 9.96024 13.1284 
91 1 9.98711 6.83947 13.1885 
99 1 11.6003 8.46644 11.5691 
105 1 8.34389 2.17431 14.7661 
115 1 8.44436 5.31507 14.7701 
106 1 9.98398 3.758 16.2379 
107 1 11.5443 2.12195 14.7519 
117 1 11.6009 5.23301 14.644 
123 1 8.42053 8.43771 14.7843 
116 1 10.0871 6.81296 16.2665 
124 1 11.625 8.47729 14.6844 
229 1 13.1045 10.0358 16.3645 
230 1 16.2509 10.0093 16.2542 
83 1 13.0629 3.66528 13.1059 
84 1 14.7793 2.10713 11.6121 
85 1 16.2319 3.78239 13.1157 
94 1 14.6911 5.27387 11.6069 
205 1 16.2787 9.99762 13.1258 
204 1 13.1599 10.046 13.1188 
93 1 13.1208 6.89653 13.1281 
95 1 16.2578 6.80428 13.1868 
100 1 14.7615 8.36953 11.5804 
108 1 13.0862 3.73965 16.2346 
109 1 14.7409 2.2007 14.6716 
110 1 16.283 3.76248 16.3241 
119 1 14.6765 5.30091 14.7004 
118 1 13.1408 6.88754 16.2993 
120 1 16.2995 6.86069 16.2432 
125 1 14.6707 8.4504 14.7239 
131 1 2.03917 11.6088 2.151 
132 1 3.67791 13.0989 3.72149 
133 1 5.22141 11.634 2.09473 
156 1 2.07438 11.5331 5.26504 
158 1 5.2539 11.505 5.25408 
134 1 6.8027 13.1262 3.72109 
141 1 2.17223 14.7269 2.15192 
142 1 3.68566 16.3457 3.7103 
143 1 5.34119 14.7909 2.17325 
166 1 2.2111 14.7085 5.27009 
168 1 5.30464 14.6857 5.33396 
144 1 6.86041 16.3505 3.7042 
157 1 3.64102 13.0815 6.8447 
176 1 2.11103 11.5086 8.38871 
177 1 5.20656 11.6167 8.5083 
169 1 6.8464 16.2891 6.91757 
159 1 6.77103 13.1766 6.89411 
182 1 5.3048 14.7693 8.48806 
181 1 2.10684 14.7338 8.37315 
167 1 3.67467 16.2976 6.7983 
191 1 3.66087 13.1397 10.0354 
192 1 6.8996 13.0662 10.0568 
196 1 3.72694 16.3203 10.0614 
197 1 6.9285 16.2397 10.0265 
135 1 8.35028 11.5784 2.16407 
160 1 8.37403 11.5575 5.37487 
184 1 11.623 14.7793 8.49203 
136 1 9.9657 13.1549 3.68396 
137 1 11.5882 11.5244 2.11632 
162 1 11.6337 11.5718 5.31029 
171 1 9.98366 16.2806 6.81165 
145 1 8.42527 14.6889 2.15672 
170 1 8.38275 14.6592 5.25041 
146 1 9.9831 16.3109 3.68167 
147 1 11.6113 14.7355 2.16395 
172 1 11.628 14.7201 5.29025 
183 1 8.47228 14.709 8.4184 
178 1 8.43093 11.6151 8.49008 
161 1 9.98034 13.219 6.88664 
179 1 11.5254 11.5695 8.40182 
193 1 10.056 13.1619 10.0408 
198 1 10.0478 16.3236 10.0156 
185 1 14.7935 14.7362 8.36193 
175 1 16.3292 16.3544 6.79131 
173 1 13.1218 16.2734 6.8285 
138 1 13.1262 13.1175 3.68897 
139 1 14.7185 11.5453 2.22319 
140 1 16.3048 13.2035 3.72254 
164 1 14.7403 11.6449 5.26928 
148 1 13.152 16.2898 3.64252 
149 1 14.7258 14.6974 2.06456 
150 1 16.2645 16.2404 3.67309 
174 1 14.774 14.78 5.23495 
163 1 13.1663 13.1074 6.92938 
165 1 16.3223 13.1312 6.80885 
180 1 14.7804 11.5857 8.3962 
194 1 13.2297 13.0872 10.0154 
195 1 16.3666 13.1255 9.93731 
199 1 13.2409 16.3601 10.0715 
200 1 16.3608 16.3375 9.942 
206 1 2.18707 11.6177 11.587 
207 1 3.71223 13.212 13.1597 
208 1 5.2246 11.5795 11.6444 
209 1 6.91448 13.1575 13.2218 
244 1 6.85372 16.3365 16.2585 
243 1 5.20487 14.6962 14.8056 
242 1 3.64325 16.375 16.3139 
234 1 6.80897 13.1812 16.2475 
241 1 2.14051 14.7505 14.7833 
216 1 2.06172 14.7034 11.5426 
217 1 3.69144 16.247 13.1315 
218 1 5.30622 14.638 11.6338 
233 1 5.28783 11.5916 14.7499 
219 1 6.79385 16.3356 13.1125 
232 1 3.664 13.1344 16.307 
231 1 2.0779 11.6162 14.6518 
236 1 9.93534 13.1938 16.3155 
237 1 11.5807 11.6293 14.6901 
247 1 11.6022 14.7648 14.6678 
210 1 8.36966 11.5619 11.6345 
246 1 10.0391 16.3389 16.2395 
245 1 8.38686 14.8031 14.6798 
235 1 8.4186 11.5249 14.7915 
211 1 9.93333 13.1287 13.2307 
212 1 11.5272 11.5883 11.5739 
220 1 8.44565 14.7207 11.519 
221 1 9.94854 16.2453 13.1167 
222 1 11.587 14.7158 11.5217 
250 1 16.3047 16.3472 16.3705 
249 1 14.7969 14.7649 14.755 
248 1 13.1698 16.2532 16.2723 
238 1 13.1816 13.1219 16.3381 
213 1 13.1913 13.162 13.1999 
214 1 14.7906 11.5619 11.6305 
215 1 16.2816 13.1617 13.1552 
239 1 14.6736 11.5228 14.7751 
223 1 13.1223 16.3423 13.1284 
240 1 16.2776 13.0896 16.2611 
224 1 14.6754 14.6721 11.5445 
225 1 16.2884 16.2564 13.143 
ITEM: TIMESTEP
100
ITEM: NUMBER OF ATOMS
250
ITEM: BOX BOUNDS pp pp pp
2.1272791552764687e+00 1.7872720844723222e+01
2.1272791552764687e+00 1.7872720844723222e+01
2.1272791552764687e+00 1.7872720844723222e+01
ITEM: ATOMS id type x y z 
1 1 2.11927 2.15209 2.09628 
2 1 3.74242 3.75593 3.74845 
3 1 5.24877 2.16424 2.11702 
11 1 2.11593 5.33047 2.10073 
13 1 5.27855 5.30162 2.12723 
26 1 2.09572 2.15357 5.26677 
28 1 5.27348 2.07856 5.27455 
36 1 2.16859 5.24813 5.29631 
38 1 5.2665 5.30371 5.26773 
4 1 6.80597 3.72927 3.75994 
12 1 3.70851 6.82809 3.7284 
21 1 2.09928 8.44018 2.05585 
22 1 5.30622 8.51016 2.10317 
46 1 2.18225 8.39383 5.25591 
47 1 5.28713 8.429 5.21471 
14 1 6.90828 6.86969 3.69059 
27 1 3.66606 3.72075 6.80729 
51 1 2.13126 2.10886 8.37984 
52 1 5.30646 2.13016 8.4571 
56 1 2.21012 5.30112 8.38785 
57 1 5.29217 5.26923 8.35054 
29 1 6.86413 3.70674 6.82839 
37 1 3.74879 6.81926 6.77464 
61 1 2.17747 8.4171 8.38868 
62 1 5.33594 8.43236 8.4465 
39 1 6.86188 6.84209 6.83955 
126 1 3.72514 10.0086 3.63818 
127 1 6.80184 9.97477 3.70687 
151 1 3.69033 9.96293 6.85047 
152 1 6.85464 10.0684 6.93236 
66 1 3.70005 3.65889 9.9978 
67 1 6.83878 3.62474 9.95628 
71 1 3.74047 6.83545 9.96878 
72 1 6.86044 6.84805 9.93396 
187 1 6.84441 9.98998 10.0556 
186 1 3.7132 10.0103 9.97887 
5 1 8.45007 2.08588 2.08221 
15 1 8.46923 5.31738 2.10075 
30 1 8.43748 2.10852 5.28578 
40 1 8.41615 5.29728 5.28069 
6 1 10.0155 3.6944 3.71898 
7 1 11.5828 2.14757 2.06211 
17 1 11.5452 5.26599 2.11867 
32 1 11.5508 2.12735 5.24474 
42 1 11.5413 5.26185 5.2626 
23 1 8.43472 8.42604 2.1478 
48 1 8.43761 8.43844 5.23518 
16 1 10.0169 6.85155 3.68979 
24 1 11.5715 8.41454 2.16813 
49 1 11.5531 8.45285 5.25911 
53 1 8.45336 2.12618 8.43928 
58 1 8.49413 5.27378 8.38279 
31 1 9.97163 3.69439 6.82938 
54 1 11.5584 2.11378 8.41025 
59 1 11.6186 5.29668 8.39121 
63 1 8.46418 8.4406 8.42368 
41 1 10.0396 6.85574 6.87765 
64 1 11.6115 8.40392 8.46192 
128 1 10.0022 9.99822 3.71464 
153 1 10.0369 10.0342 6.88538 
68 1 9.97246 3.72211 9.95863 
73 1 10.0056 6.88894 9.98641 
188 1 10.0374 10.0061 10.0416 
8 1 13.1123 3.69029 3.70385 
9 1 14.6181 2.13838 2.09043 
10 1 16.1981 3.71368 3.72639 
19 1 14.7268 5.29484 2.1384 
34 1 14.6781 2.18734 5.22435 
44 1 14.7285 5.25073 5.28612 
18 1 13.1316 6.84917 3.70938 
20 1 16.2936 6.83998 3.68545 
25 1 14.7156 8.42234 2.12422 
50 1 14.7445 8.40667 5.29246 
33 1 13.1649 3.69885 6.83115 
35 1 16.2577 3.69034 6.79573 
55 1 14.7813 2.14534 8.3959 
60 1 14.7221 5.2942 8.40716 
43 1 13.1894 6.82805 6.95158 
45 1 16.3064 6.85913 6.82877 
65 1 14.7655 8.39378 8.42341 
129 1 13.1628 9.95198 3.76475 
130 1 16.2863 9.95451 3.6902 
154 1 13.1812 10.0267 6.87616 
155 1 16.3324 9.9479 6.85886 
69 1 13.1507 3.67209 10.0082 
70 1 16.3151 3.69417 10.0245 
190 1 16.3835 10.0016 9.98294 
74 1 13.1936 6.88718 9.95623 
189 1 13.1638 10.0019 9.98319 
75 1 16.36 6.82285 10.0181 
76 1 2.14583 2.15179 11.5724 
77 1 3.67028 3.65501 13.1668 
78 1 5.24154 2.13859 11.5835 
86 1 2.1125 5.31046 11.5752 
88 1 5.29068 5.23065 11.5568 
79 1 6.79742 3.67073 13.1232 
227 1 6.80219 10.0105 16.3371 
226 1 3.65572 10.006 16.2855 
87 1 3.70334 6.8071 13.1128 
96 1 2.18544 8.41486 11.5831 
97 1 5.30793 8.3361 11.6039 
89 1 6.8445 6.80445 13.1486 
202 1 6.84191 9.95519 13.1722 
201 1 3.70476 9.99207 13.142 
101 1 2.09986 2.20681 14.7595 
102 1 3.69658 3.71917 16.2887 
103 1 5.20056 2.14469 14.7416 
111 1 2.16302 5.28704 14.7162 
113 1 5.25485 5.26313 14.7245 
104 1 6.83625 3.67545 16.2942 
112 1 3.72574 6.84527 16.2467 
121 1 2.09556 8.41322 14.6971 
122 1 5.30089 8.40932 14.6808 
114 1 6.87932 6.86062 16.3025 
80 1 8.39146 2.11441 11.553 
90 1 8.46806 5.22951 11.5528 
228 1 9.99548 10.0226 16.3022 
81 1 9.93661 3.68844 13.1036 
82 1 11.563 2.11568 11.5906 
92 1 11.5454 5.26292 11.5666 
98 1 8.4796 8.40317 11.5844 
203 1 9.98926 10.0016 13.1837 
91 1 10.003 6.85127 13.1214 
99 1 11.5609 8.42705 11.5363 
105 1 8.39803 2.15473 14.7022 
115 1 8.44135 5.27212 14.6762 
106 1 9.99276 3.6763 16.3187 
107 1 11.5318 2.1303 14.6663 
117 1 11.5485 5.3309 14.6897 
123 1 8.47153 8.38002 14.7119 
116 1 10.0227 6.85595 16.2896 
124 1 11.536 8.47079 14.7252 
229 1 13.142 9.95849 16.3053 
230 1 16.2864 9.94862 16.2915 
83 1 13.1133 3.71955 13.1043 
84 1 14.7219 2.13917 11.5412 
85 1 16.3088 3.71271 13.1821 
94 1 14.7407 5.28114 11.5681 
205 1 16.3436 9.96429 13.1541 
204 1 13.129 10.0362 13.1635 
93 1 13.1286 6.86437 13.1442 
95 1 16.3697 6.89679 13.1223 
100 1 14.7587 8.42681 11.6007 
108 1 13.1281 3.67739 16.2799 
109 1 14.6848 2.14794 14.7361 
110 1 16.3027 3.76021 16.2636 
119 1 14.6782 5.3048 14.713 
118 1 13.1497 6.86558 16.2608 
120 1 16.3168 6.88534 16.3077 
125 1 14.7384 8.43296 14.7235 
131 1 2.09588 11.5448 2.08958 
132 1 3.70604 13.1503 3.70686 
133 1 5.23224 11.5767 2.1256 
156 1 2.14465 11.514 5.19686 
158 1 5.26002 11.5862 5.28207 
134 1 6.80599 13.1523 3.72112 
141 1 2.14372 14.7457 2.13434 
142 1 3.73347 16.2805 3.71775 
143 1 5.23519 14.7507 2.16643 
166 1 2.12668 14.7194 5.24339 
168 1 5.24816 14.741 5.29897 
144 1 6.82758 16.2512 3.76229 
157 1 3.72229 13.141 6.88092 
176 1 2.16684 11.5457 8.42718 
177 1 5.2969 11.5522 8.47042 
169 1 6.84716 16.2909 6.85645 
159 1 6.81951 13.0995 6.9455 
182 1 5.23907 14.6743 8.50249 
181 1 2.20093 14.7249 8.40184 
167 1 3.72833 16.2804 6.89707 
191 1 3.7297 13.175 9.98763 
192 1 6.82532 13.1434 10.0625 
196 1 3.67461 16.2322 9.99843 
197 1 6.8504 16.3016 9.9987 
135 1 8.40968 11.5737 2.13445 
160 1 8.41418 11.6404 5.29571 
184 1 11.6633 14.7106 8.43835 
136 1 10.003 13.1038 3.76263 
137 1 11.4695 11.6087 2.16162 
162 1 11.5335 11.5739 5.28554 
171 1 10.0022 16.3038 6.86417 
145 1 8.40047 14.7838 2.09002 
170 1 8.42453 14.7222 5.30492 
146 1 9.993 16.2355 3.70257 
147 1 11.5321 14.6795 2.0734 
172 1 11.5648 14.6875 5.28491 
183 1 8.44445 14.7482 8.45345 
178 1 8.40498 11.5796 8.47077 
161 1 10.0285 13.1383 6.85039 
179 1 11.6159 11.5853 8.4637 
193 1 10.0242 13.1357 10.0283 
198 1 10.0154 16.3257 9.95167 
185 1 14.75 14.7249 8.41367 
175 1 16.2949 16.2882 6.79234 
173 1 13.1678 16.2782 6.84398 
138 1 13.1432 13.162 3.74714 
139 1 14.6986 11.5346 2.14127 
140 1 16.2863 13.127 3.66056 
164 1 14.6938 11.5425 5.27962 
148 1 13.1481 16.3056 3.6698 
149 1 14.7617 14.7183 2.14151 
150 1 16.3132 16.3669 3.6753 
174 1 14.7015 14.6973 5.2689 
163 1 13.1599 13.1657 6.85057 
165 1 16.3138 13.1977 6.81291 
180 1 14.7299 11.5364 8.44081 
194 1 13.1935 13.1186 10.014 
195 1 16.3039 13.1626 9.97974 
199 1 13.1791 16.2686 9.98609 
200 1 16.3029 16.2896 9.99708 
206 1 2.12577 11.523 11.5728 
207 1 3.67221 13.1339 13.2106 
208 1 5.33105 11.5284 11.6391 
209 1 6.81384 13.132 13.1944 
244 1 6.81382 16.334 16.3386 
243 1 5.26111 14.7949 14.7655 
242 1 3.70973 16.3465 16.3603 
234 1 6.84802 13.1884 16.376 
241 1 2.07936 14.7414 14.739 
216 1 2.12361 14.7507 11.5826 
217 1 3.644 16.3167 13.177 
218 1 5.28882 14.7055 11.5971 
233 1 5.23754 11.5502 14.7148 
219 1 6.81818 16.2836 13.1651 
232 1 3.64113 13.2106 16.3387 
231 1 2.11304 11.5753 14.711 
236 1 10.0119 13.1606 16.3101 
237 1 11.5156 11.5746 14.7716 
247 1 11.5693 14.7127 14.7364 
210 1 8.43865 11.5073 11.6635 
246 1 9.95712 16.2929 16.3105 
245 1 8.39641 14.757 14.7631 
235 1 8.42841 11.5812 14.7761 
211 1 10.0213 13.153 13.1551 
212 1 11.5948 11.5923 11.5981 
220 1 8.44935 14.6932 11.607 
221 1 9.96405 16.3593 13.1076 
222 1 11.6111 14.7369 11.6245 
250 1 16.276 16.3159 16.2744 
249 1 14.707 14.7387 14.6947 
248 1 13.159 16.3573 16.257 
238 1 13.0887 13.156 16.2986 
213 1 13.1369 13.1869 13.1553 
214 1 14.7354 11.5749 11.5636 
215 1 16.3002 13.1546 13.1313 
239 1 14.7022 11.6096 14.7468 
223 1 13.1352 16.3013 13.1445 
240 1 16.2786 13.1763 16.3314 
224 1 14.7802 14.7326 11.5522 
225 1 16.2606 16.3016 13.1484 
ITEM: TIMESTEP
150
ITEM: NUMBER OF ATOMS
250
ITEM: BOX BOUNDS pp pp pp
2.1272791552764687e+00 1.7872720844723222e+01
2.1272791552764687e+00 1.7872720844723222e+01
2.1272791552764687e+00 1.7872720844723222e+01
ITEM: ATOMS id type x y z 
1 1 2.12793 2.18512 2.12582 
2 1 3.67347 3.7278 3.69602 
3 1 5.25646 2.15351 2.14554 
11 1 2.08169 5.26892 2.08039 
13 1 5.2427 5.27876 2.12625 
26 1 2.15019 2.11143 5.24418 
28 1 5.22868 2.11714 5.24758 
36 1 2.1029 5.27035 5.26958 
38 1 5.33569 5.28549 5.30771 
4 1 6.90228 3.68647 3.6661 
12 1 3.6459 6.85049 3.61368 
21 1 2.12699 8.42567 2.15335 
22 1 5.20289 8.36374 2.14589 
46 1 2.12157 8.44286 5.23008 
47 1 5.27608 8.44334 5.27225 
14 1 6.87878 6.79557 3.65961 
27 1 3.70911 3.65443 6.90195 
51 1 2.1501 2.11727 8.36607 
52 1 5.30841 2.13737 8.39244 
56 1 2.1281 5.28546 8.4709 
57 1 5.30395 5.26978 8.45262 
29 1 6.82348 3.62232 6.80894 
37 1 3.68557 6.88031 6.81763 
61 1 2.13131 8.32835 8.44584 
62 1 5.27798 8.38938 8.40422 
39 1 6.87334 6.8597 6.8363 
126 1 3.67039 10.0211 3.73939 
127 1 6.84094 10.0446 3.77087 
151 1 3.71365 9.98 6.86449 
152 1 6.88103 9.95707 6.81276 
66 1 3.71094 3.68837 10.0038 
67 1 6.85324 3.72922 9.98523 
71 1 3.75318 6.87358 9.99026 
72 1 6.88765 6.82511 10.0131 
187 1 6.85582 10.0035 10.0295 
186 1 3.718 10.0048 9.98657 
5 1 8.39161 2.17294 2.15883 
15 1 8.41342 5.23793 2.0374 
30 1 8.44756 2.15019 5.23778 
40 1 8.47352 5.35238 5.2919 
6 1 9.95646 3.68882 3.73018 
7 1 11.5286 2.10629 2.07836 
17 1 11.6116 5.29058 2.10813 
32 1 11.5924 2.09396 5.24351 
42 1 11.6242 5.27304 5.25697 
23 1 8.44421 8.55103 2.12817 
48 1 8.42378 8.47769 5.30425 
16 1 10.0483 6.8356 3.70154 
24 1 11.5826 8.50895 2.13351 
49 1 11.5484 8.4145 5.35653 
53 1 8.44269 2.07707 8.44155 
58 1 8.42248 5.22564 8.46032 
31 1 10.0044 3.68764 6.8749 
54 1 11.593 2.13853 8.38676 
59 1 11.6112 5.26639 8.38127 
63 1 8.44763 8.42747 8.35372 
41 1 10.0634 6.85553 6.87313 
64 1 11.6345 8.4566 8.44669 
128 1 10.0023 9.99366 3.74749 
153 1 10.056 9.98453 6.96409 
68 1 10.0219 3.72168 10.013 
73 1 9.96819 6.85355 9.98258 
188 1 10.016 10.0398 10.0585 
8 1 13.1377 3.68498 3.69201 
9 1 14.7376 2.09536 2.13685 
10 1 16.3662 3.73321 3.62294 
19 1 14.7069 5.27462 2.15338 
34 1 14.7614 2.091 5.28844 
44 1 14.75 5.29922 5.22952 
18 1 13.1481 6.83372 3.70906 
20 1 16.2994 6.89986 3.6987 
25 1 14.667 8.45919 2.10524 
50 1 14.6762 8.37293 5.24552 
33 1 13.1425 3.67103 6.8338 
35 1 16.3173 3.74718 6.89189 
55 1 14.7565 2.17298 8.42817 
60 1 14.7856 5.28358 8.42707 
43 1 13.165 6.87364 6.75067 
45 1 16.3165 6.83575 6.78346 
65 1 14.7556 8.41107 8.41027 
129 1 13.1623 10.0498 3.69258 
130 1 16.3073 10.0158 3.75294 
154 1 13.1595 10.0102 6.83008 
155 1 16.3449 10.0123 6.89511 
69 1 13.0719 3.70192 9.92348 
70 1 16.2985 3.65821 9.97889 
190 1 16.3213 9.92322 9.98055 
74 1 13.1496 6.8697 10.0434 
189 1 13.1838 10.0129 9.99437 
75 1 16.2947 6.82653 9.9793 
76 1 2.14483 2.1046 11.4992 
77 1 3.68089 3.69751 13.1338 
78 1 5.28552 2.10125 11.5996 
86 1 2.15035 5.21921 11.5307 
88 1 5.30457 5.28321 11.5759 
79 1 6.82701 3.64974 13.1045 
227 1 6.88757 10.0239 16.2813 
226 1 3.75487 9.92491 16.2862 
87 1 3.68088 6.81084 13.1153 
96 1 2.18217 8.41411 11.5614 
97 1 5.32312 8.40461 11.6081 
89 1 6.87637 6.85832 13.1808 
202 1 6.90988 10.0253 13.1778 
201 1 3.68276 9.97126 13.1139 
101 1 2.12324 2.13633 14.7617 
102 1 3.65668 3.72767 16.2953 
103 1 5.30339 2.15847 14.7237 
111 1 2.0771 5.34104 14.6518 
113 1 5.27247 5.32585 14.707 
104 1 6.82053 3.70451 16.2455 
112 1 3.72496 6.844 16.2816 
121 1 2.14993 8.41567 14.776 
122 1 5.24283 8.46985 14.6979 
114 1 6.81556 6.89282 16.3321 
80 1 8.45601 2.04437 11.5571 
90 1 8.37527 5.26953 11.567 
228 1 9.97204 10.0188 16.308 
81 1 10.0631 3.73573 13.1186 
82 1 11.6224 2.06934 11.5189 
92 1 11.6317 5.25126 11.5012 
98 1 8.42818 8.44027 11.5237 
203 1 10.0451 10.0428 13.1964 
91 1 10.0205 6.85301 13.0803 
99 1 11.6211 8.40142 11.6216 
105 1 8.43202 2.07914 14.6698 
115 1 8.38119 5.20547 14.6711 
106 1 9.98554 3.67085 16.2872 
107 1 11.5565 2.17042 14.6674 
117 1 11.5146 5.2922 14.7781 
123 1 8.40106 8.42556 14.6911 
116 1 9.92655 6.90197 16.3175 
124 1 11.553 8.37702 14.7568 
229 1 13.1457 9.9993 16.2721 
230 1 16.2846 10.045 16.3153 
83 1 13.217 3.75983 13.1816 
84 1 14.6766 2.15969 11.5418 
85 1 16.3095 3.66329 13.1546 
94 1 14.7433 5.30223 11.5368 
205 1 16.2874 10.0486 13.1564 
204 1 13.1613 9.96945 13.1908 
93 1 13.1974 6.85776 13.1163 
95 1 16.2957 6.86158 13.1204 
100 1 14.7204 8.50143 11.5466 
108 1 13.166 3.76093 16.293 
109 1 14.6746 2.11508 14.7047 
110 1 16.2417 3.68713 16.3103 
119 1 14.78 5.28858 14.7131 
118 1 13.1411 6.81361 16.3095 
120 1 16.2667 6.82532 16.2959 
125 1 14.7365 8.42032 14.6912 
131 1 2.16647 11.5596 2.07677 
132 1 3.67441 13.1845 3.70088 
133 1 5.29666 11.5793 2.14606 
156 1 2.15744 11.6071 5.2922 
158 1 5.29263 11.6256 5.33196 
134 1 6.88871 13.1733 3.74869 
141 1 2.02788 14.7643 2.12414 
142 1 3.66565 16.3211 3.73399 
143 1 5.21138 14.6852 2.11864 
166 1 2.03368 14.7293 5.25836 
168 1 5.24993 14.7044 5.30831 
144 1 6.85598 16.2844 3.70515 
157 1 3.74091 13.1574 6.83837 
176 1 2.15833 11.6569 8.40189 
177 1 5.33041 11.5089 8.41292 
169 1 6.86291 16.2725 6.85636 
159 1 6.9487 13.1781 6.85395 
182 1 5.33427 14.69 8.38 
181 1 2.09709 14.6865 8.4555 
167 1 3.73056 16.308 6.88884 
191 1 3.7149 13.0736 10.0845 
192 1 6.8612 13.2011 10.0517 
196 1 3.68931 16.3097 9.98872 
197 1 6.76382 16.2926 10.0097 
135 1 8.42835 11.6045 2.1537 
160 1 8.42165 11.5609 5.23879 
184 1 11.524 14.6572 8.39012 
136 1 9.9614 13.1875 3.70963 
137 1 11.5991 11.5766 2.17998 
162 1 11.55 11.5552 5.29653 
171 1 10.0491 16.275 6.87641 
145 1 8.38888 14.7131 2.18403 
170 1 8.43573 14.7626 5.3487 
146 1 10.0155 16.2773 3.71413 
147 1 11.5532 14.7575 2.13747 
172 1 11.525 14.7436 5.26419 
183 1 8.40117 14.6975 8.48029 
178 1 8.48549 11.5532 8.47063 
161 1 10.0089 13.0971 6.92227 
179 1 11.6363 11.5822 8.47573 
193 1 9.96482 13.1608 9.99474 
198 1 9.98657 16.2309 10.017 
185 1 14.7327 14.6969 8.4567 
175 1 16.279 16.2506 6.87061 
173 1 13.1883 16.3505 6.83191 
138 1 13.1461 13.1392 3.6759 
139 1 14.6428 11.601 2.03676 
140 1 16.286 13.0768 3.69047 
164 1 14.7551 11.4951 5.3009 
148 1 13.1065 16.2683 3.72602 
149 1 14.657 14.7654 2.16265 
150 1 16.2962 16.3625 3.68573 
174 1 14.6966 14.7007 5.26702 
163 1 13.1717 13.1517 6.80002 
165 1 16.3128 13.0837 6.85963 
180 1 14.7696 11.5701 8.43255 
194 1 13.1102 13.2217 10.0103 
195 1 16.309 13.1459 10.027 
199 1 13.0834 16.2517 9.91549 
200 1 16.2759 16.2801 10.0033 
206 1 2.11859 11.5762 11.5589 
207 1 3.67755 13.1113 13.149 
208 1 5.29242 11.5405 11.5504 
209 1 6.78851 13.1356 13.1855 
244 1 6.79626 16.2964 16.363 
243 1 5.27717 14.7336 14.6998 
242 1 3.67706 16.262 16.2902 
234 1 6.81527 13.136 16.3634 
241 1 2.08128 14.7472 14.6875 
216 1 2.20862 14.7064 11.6212 
217 1 3.66371 16.3289 13.209 