LAMMPS (3 Mar 2020)
# Mo, bcc

# # ---------- Initialize Simulation ---------------------
clear
units           metal
dimension       3
boundary        p p p
atom_style      atomic
atom_modify     map array

# # ---------- Create Atoms ---------------------
lattice         bcc 4.00
Lattice spacing in x,y,z = 4 4 4
region          box block 0 5 0 5 0 5 units lattice
create_box      1 box
Created orthogonal box = (0 0 0) to (20 20 20)
  1 by 2 by 2 MPI processor grid
create_atoms    1 box
Created 250 atoms
  create_atoms CPU = 0.000264424 secs

# # ---------- Define Interatomic Potential ---------------------
pair_style      eam/alloy
pair_coeff      * * Mo_Zhou04.eam.alloy Mo
Reading potential file Mo_Zhou04.eam.alloy with DATE: 2018-03-30
neighbor        2.0 bin
neigh_modify    delay 10 check yes

#  # ---------- Define Settings ---------------------
compute         eng all pe/atom
compute         eatoms all reduce sum c_eng

#  # ---------- Run Minimization ---------------------
reset_timestep  0
fix             1 all box/relax iso 2639 vmax 0.001
thermo          10
thermo_style    custom step pe lx ly lz press pxx pyy pzz
min_style       cg
minimize        1e-25 1e-25 5000 10000
WARNING: Using 'neigh_modify every 1 delay 0 check yes' setting during minimization (src/min.cpp:190)
Neighbor list info ...
  update every 1 steps, delay 0 steps, check yes
  max neighbors/atom: 2000, page size: 100000
  master list distance cutoff = 8.10022
  ghost atom cutoff = 8.10022
  binsize = 4.05011, bins = 5 5 5
  1 neighbor lists, perpetual/occasional/extra = 1 0 0
  (1) pair eam/alloy, perpetual
      attributes: half, newton on
      pair build: half/bin/atomonly/newton
      stencil: half/bin/3d/newton
      bin: standard
Per MPI rank memory allocation (min/avg/max) = 4.601 | 4.601 | 4.601 Mbytes
Step PotEng Lx Ly Lz Press Pxx Pyy Pzz 
       0   -490.30867           20           20           20   -530575.56   -530575.56   -530575.56   -530575.56 
      10   -571.95007         19.8         19.8         19.8   -568622.48   -568622.48   -568622.48   -568622.48 
      20   -656.61876         19.6         19.6         19.6    -594526.8    -594526.8    -594526.8    -594526.8 
      30   -742.39715         19.4         19.4         19.4    -608337.7    -608337.7    -608337.7    -608337.7 
      40   -827.59464         19.2         19.2         19.2   -611621.25   -611621.25   -611621.25   -611621.25 
      50   -910.90731           19           19           19   -606895.03   -606895.03   -606895.03   -606895.03 
      60   -991.47377         18.8         18.8         18.8   -596947.16   -596947.16   -596947.16   -596947.16 
      70   -1068.8382         18.6         18.6         18.6   -584244.64   -584244.64   -584244.64   -584244.64 
      80   -1142.8496         18.4         18.4         18.4   -570519.91   -570519.91   -570519.91   -570519.91 
      90   -1213.5292         18.2         18.2         18.2   -556526.63   -556526.63   -556526.63   -556526.63 
     100   -1280.9279           18           18           18    -541935.7    -541935.7    -541935.7    -541935.7 
     110    -1344.996         17.8         17.8         17.8   -525395.39   -525395.39   -525395.39   -525395.39 
     120   -1405.4871         17.6         17.6         17.6   -504832.49   -504832.49   -504832.49   -504832.49 
     130    -1461.924         17.4         17.4         17.4   -478035.68   -478035.68   -478035.68   -478035.68 
     140   -1513.6471         17.2         17.2         17.2   -443392.98   -443392.98   -443392.98   -443392.98 
     150   -1559.9343           17           17           17   -400480.76   -400480.76   -400480.76   -400480.76 
     160   -1600.1503         16.8         16.8         16.8   -350222.74   -350222.74   -350222.74   -350222.74 
     170   -1633.8718         16.6         16.6         16.6   -294607.12   -294607.12   -294607.12   -294607.12 
     180   -1660.9572         16.4         16.4         16.4   -236254.16   -236254.16   -236254.16   -236254.16 
     190    -1681.571         16.2         16.2         16.2   -178019.41   -178019.41   -178019.41   -178019.41 
     200   -1695.7053           16           16           16   -110044.32   -110044.32   -110044.32   -110044.32 
     210   -1702.2212         15.8         15.8         15.8   -24120.944   -24120.944   -24120.944   -24120.944 
     220   -1702.4977    15.745442    15.745442    15.745442         2639         2639         2639         2639 
Loop time of 0.0531361 on 4 procs for 220 steps with 250 atoms

98.0% CPU use with 4 MPI tasks x no OpenMP threads

Minimization stats:
  Stopping criterion = energy tolerance
  Energy initial, next-to-last, final = 
        -490.308672124      -1709.2449864      -1709.2449864
  Force two-norm initial, final = 7987.35 1.71066e-11
  Force max component initial, final = 7987.35 1.7057e-11
  Final line search alpha, max atom move = 1 1.7057e-11
  Iterations, force evaluations = 220 228

MPI task timing breakdown:
Section |  min time  |  avg time  |  max time  |%varavg| %total
---------------------------------------------------------------
Pair    | 0.029654   | 0.032688   | 0.036018   |   1.4 | 61.52
Neigh   | 0.00074277 | 0.00092684 | 0.0010377  |   0.0 |  1.74
Comm    | 0.0069554  | 0.010588   | 0.0136     |   2.6 | 19.93
Output  | 0.00040116 | 0.00046517 | 0.00060498 |   0.0 |  0.88
Modify  | 0          | 0          | 0          |   0.0 |  0.00
Other   |            | 0.008468   |            |       | 15.94

Nlocal:    62.5 ave 90 max 40 min
Histogram: 1 0 0 0 2 0 0 0 0 1
Nghost:    1281.5 ave 1304 max 1254 min
Histogram: 1 0 0 0 0 0 2 0 0 1
Neighs:    4250 ave 5801 max 2933 min
Histogram: 1 0 0 1 1 0 0 0 0 1

Total # of neighbors = 17000
Ave neighs/atom = 68
Neighbor list builds = 7
Dangerous builds = 0
unfix           1

#  # ----------- Run simulation of bcc phase of Mo --------------------
reset_timestep  0
thermo          10
thermo_style    custom step lx ly lz press pxx pyy pzz pe temp
thermo_modify   format 2 %22.18f
velocity        all create 300 12345 mom yes rot no
dump            1 all custom 50 dumpMoBcc.out id type x y z

#fix             2 all npt temp 300 300 1 iso 0 0 1 drag 1
fix             2 all nvt temp 300.0 300.0 100.0

run             9999
Per MPI rank memory allocation (min/avg/max) = 4.753 | 4.753 | 4.753 Mbytes
Step Lx Ly Lz Press Pxx Pyy Pzz PotEng Temp 
       0  15.745441689446753486    15.745442    15.745442    5281.0425    5231.8391    5204.1997    5407.0885   -1702.4977          300 
      10  15.745441689446753486    15.745442    15.745442    6047.2903    6012.5386    5981.1725    6148.1599   -1701.1046     256.7369 
      20  15.745441689446753486    15.745442    15.745442    7731.8209    7737.6759    7707.0844    7750.7025   -1697.8859    156.77908 
      30  15.745441689446753486    15.745442    15.745442     9056.969    9083.5657    9113.1768    8974.1646   -1694.9789    66.495728 
      40  15.745441689446753486    15.745442    15.745442    9133.3675    9112.4887    9295.9805    8991.6335    -1694.088    38.816793 
      50  15.745441689446753486    15.745442    15.745442     8102.951    7987.7725    8351.5512    7969.5291   -1695.3154     76.92523 
      60  15.745441689446753486    15.745442    15.745442    6915.0236    6742.1803    7172.6453     6830.245   -1697.3531    140.20404 
      70  15.745441689446753486    15.745442    15.745442    6473.4759    6332.0967    6647.3566    6440.9743   -1698.7145    182.49051 
      80  15.745441689446753486    15.745442    15.745442    6929.8438    6867.6068    6985.8414    6936.0831   -1698.8419    186.46005 
      90  15.745441689446753486    15.745442    15.745442    7707.8874    7693.6998    7708.3723      7721.59    -1698.257    168.30663 
     100  15.745441689446753486    15.745442    15.745442    8113.3208     8096.552    8162.6038    8080.8065   -1697.8287    155.00576 
     110  15.745441689446753486    15.745442    15.745442    7916.1798    7892.5251    8063.9177    7792.0965   -1697.9125     157.6027 
     120  15.745441689446753486    15.745442    15.745442    7446.8513    7444.5229    7664.5406    7231.4904   -1698.1394    164.64026 
     130  15.745441689446753486    15.745442    15.745442     7223.913    7237.4655    7460.7926    6973.4809   -1697.9464    158.63989 
     140  15.745441689446753486    15.745442    15.745442    7472.5547    7442.1308    7701.8324    7273.7007   -1697.2367    136.60332 
     150  15.745441689446753486    15.745442    15.745442    7936.6029    7803.5113    8149.9356    7856.3617   -1696.5309    114.68571 
     160  15.745441689446753486    15.745442    15.745442    8146.6466    7906.2622    8341.2846    8192.3929   -1696.5005    113.74697 
     170  15.745441689446753486    15.745442    15.745442     7877.042    7564.0305    8067.6206    7999.4748   -1697.3201    139.20068 
     180  15.745441689446753486    15.745442    15.745442    7366.0884     7009.971    7590.0017    7498.2926   -1698.4339    173.78822 
     190  15.745441689446753486    15.745442    15.745442    7091.7758    6713.6674    7364.9397    7196.7205   -1698.9979    191.30141 
     200  15.745441689446753486    15.745442    15.745442     7305.375    6955.2381    7567.0601    7393.8267   -1698.6077    179.18485 
     210  15.745441689446753486    15.745442    15.745442    7788.4192    7544.0638    7937.8282    7883.3654   -1697.6253    148.68005 
     220  15.745441689446753486    15.745442    15.745442    8082.0456    7982.4137    8087.2989    8176.4241   -1696.8251    123.82932 
     230  15.745441689446753486    15.745442    15.745442    7925.5892    7921.4369    7872.2723    7983.0584   -1696.7332    120.97084 
     240  15.745441689446753486    15.745442    15.745442    7475.3757    7467.3368    7498.5001    7460.2901   -1697.2607    137.34978 
     250  15.745441689446753486    15.745442    15.745442    7118.0047    7055.6903    7279.9339    7018.3897   -1697.8943    157.02534 
     260  15.745441689446753486    15.745442    15.745442    7089.8544    7012.7679    7326.7892    6930.0062   -1698.1879    166.14811 
     270  15.745441689446753486    15.745442    15.745442    7310.3932    7261.9362    7512.7819    7156.4616   -1698.0901    163.11367 
     280  15.745441689446753486    15.745442    15.745442    7546.9242    7474.9434    7681.5497    7484.2795   -1697.8722    156.35063 
     290  15.745441689446753486    15.745442    15.745442    7656.1667    7450.3433    7787.9948     7730.162   -1697.7929    153.88531 
     300  15.745441689446753486    15.745442    15.745442    7665.6349    7287.6411    7875.5621    7833.7017   -1697.8312    155.07133 
     310  15.745441689446753486    15.745442    15.745442    7683.8905    7228.7455    7978.5629    7844.3632   -1697.7487    152.50547 
     320  15.745441689446753486    15.745442    15.745442    7765.7326    7382.0416     8075.128    7840.0281   -1697.4083    141.93136 
     330  15.745441689446753486    15.745442    15.745442    7854.4495    7613.1442    8111.0927    7839.1117   -1696.9918    129.00073 
     340  15.745441689446753486    15.745442    15.745442    7840.4268    7695.2916    8037.2502    7788.7384   -1696.8595    124.89276 
     350  15.745441689446753486    15.745442    15.745442    7676.7527    7545.3512    7846.3699    7638.5369   -1697.1979    135.40231 
     360  15.745441689446753486    15.745442    15.745442    7441.2061    7293.5863    7602.4664    7427.5655   -1697.8335    155.14182 
     370  15.745441689446753486    15.745442    15.745442    7271.7627    7130.0987    7409.0966    7276.0928   -1698.3808    172.14327 
     380  15.745441689446753486    15.745442    15.745442     7238.465    7127.0483    7323.2688    7265.0777   -1698.5477    177.32557 
     390  15.745441689446753486    15.745442    15.745442    7298.7924    7220.8224    7321.5428     7354.012   -1698.3108    169.97044 
     400  15.745441689446753486    15.745442    15.745442    7365.3098    7307.8147    7354.3452    7433.7697   -1697.8553    155.82149 
     410  15.745441689446753486    15.745442    15.745442    7407.0069    7344.3383    7429.4496    7447.2329   -1697.3916    141.41699 
     420  15.745441689446753486    15.745442    15.745442     7486.313    7382.1398    7620.2212     7456.578   -1697.0421    130.56082 
     430  15.745441689446753486    15.745442    15.745442    7668.9136    7500.6581     7940.671    7565.4118   -1696.8651    125.06343 
     440  15.745441689446753486    15.745442    15.745442    7905.0918    7698.0764    8238.1741     7779.025   -1696.9184     126.7196 
     450  15.745441689446753486    15.745442    15.745442    8036.1909    7856.1159    8280.0582    7972.3986   -1697.2458    136.89053 
     460  15.745441689446753486    15.745442    15.745442    7927.2822     7824.405    7966.2141    7991.2276   -1697.7852    153.64521 
     470  15.745441689446753486    15.745442    15.745442    7602.2085     7572.001    7440.5031    7794.1212    -1698.313    170.03643 
     480  15.745441689446753486    15.745442    15.745442    7248.0352    7253.9169    6996.0733    7494.1155   -1698.5445     177.2282 
     490  15.745441689446753486    15.745442    15.745442     7070.537    7085.2672    6872.2128    7254.1311   -1698.3428    170.96475 
     500  15.745441689446753486    15.745442    15.745442    7146.9788    7161.1534    7110.7706    7169.0122   -1697.8367    155.24458 
     510  15.745441689446753486    15.745442    15.745442     7396.998     7400.768    7559.1345    7231.0914   -1697.3388    139.78242 
     520  15.745441689446753486    15.745442    15.745442    7664.3904     7640.592    7984.7589    7367.8202   -1697.1358    133.47572 
     530  15.745441689446753486    15.745442    15.745442    7825.9287    7765.2099    8200.0988    7512.4773   -1697.3032    138.67463 
     540  15.745441689446753486    15.745442    15.745442    7847.4527    7745.2276     8139.112    7658.0185   -1697.6755    150.23592 
     550  15.745441689446753486    15.745442    15.745442    7768.5928    7602.3833    7880.2003    7823.1947   -1697.9854    159.85992 
     560  15.745441689446753486    15.745442    15.745442    7646.2758    7388.2159    7588.0964    7962.5149   -1698.0578    162.11055 
     570  15.745441689446753486    15.745442    15.745442    7511.2331    7170.6926    7399.2409    7963.7659    -1697.906    157.39848 
     580  15.745441689446753486    15.745442    15.745442    7381.6925    7016.1666    7361.8429     7767.068   -1697.6708    150.09225 
     590  15.745441689446753486    15.745442    15.745442    7310.1896    6988.0622     7470.175    7472.3316   -1697.4707    143.87559 
     600  15.745441689446753486    15.745442    15.745442    7383.6183    7141.4482    7706.1589    7303.2479   -1697.3054    138.73978 
     610  15.745441689446753486    15.745442    15.745442    7635.0163    7465.0113    8013.5618    7426.4758   -1697.1255    133.14895 
     620  15.745441689446753486    15.745442    15.745442    7949.1909    7816.2874    8255.7392    7775.5461   -1696.9972    129.16803 
     630  15.745441689446753486    15.745442    15.745442    8101.9935    7966.4498    8269.4404    8070.0904   -1697.1222    133.05552 
     640  15.745441689446753486    15.745442    15.745442     7942.271    7781.1972    7993.0231    8052.5928   -1697.6158    148.38729 
     650  15.745441689446753486    15.745442    15.745442    7549.7541    7373.7335    7551.2817     7724.247   -1698.2863    169.21214 
     660  15.745441689446753486    15.745442    15.745442    7199.4351    7035.8619    7218.6304    7343.8131   -1698.7091    182.33976 
     670  15.745441689446753486    15.745442    15.745442    7134.6516    6988.1572    7234.5165    7181.2811   -1698.5652    177.87254 
     680  15.745441689446753486    15.745442    15.745442    7363.5645    7196.5016     7594.962      7299.23   -1697.9296    158.13151 
     690  15.745441689446753486    15.745442    15.745442    7670.9621    7420.4869    8030.2877    7562.1116   -1697.2315     136.4526 
     700  15.745441689446753486    15.745442    15.745442    7817.3848    7443.2332    8222.1549    7786.7663   -1696.9112     126.5039 
     710  15.745441689446753486    15.745442    15.745442    7739.7276    7270.9981    8081.3471    7866.8377    -1697.077    131.65007 
     720  15.745441689446753486    15.745442    15.745442    7572.6306    7116.7796    7796.1061     7805.006   -1697.4749      144.003 
     730  15.745441689446753486    15.745442    15.745442    7488.8477    7193.3778    7596.5346    7676.6307   -1697.7626    152.93949 
     740  15.745441689446753486    15.745442    15.745442    7529.3412    7491.8504    7531.4126    7564.7606   -1697.8026    154.18713 
     750  15.745441689446753486    15.745442    15.745442    7578.7375      7757.13    7500.6071    7478.4754   -1697.7275    151.85875 
     760  15.745441689446753486    15.745442    15.745442    7501.7466     7724.028    7435.5535    7345.6584   -1697.7607    152.88983 
     770  15.745441689446753486    15.745442    15.745442     7313.704    7401.9853    7382.3706    7156.7562   -1697.9658    159.25983 
     780  15.745441689446753486    15.745442    15.745442    7205.7563    7102.9778    7431.9884    7082.3027   -1698.1545    165.11493 
     790  15.745441689446753486    15.745442    15.745442    7360.5415    7145.9267    7610.6734    7325.0242   -1698.0655    162.35028 
     800  15.745441689446753486    15.745442    15.745442     7735.837    7537.1971    7837.6033    7832.7105   -1697.6655    149.92798 
     810  15.745441689446753486    15.745442    15.745442    8069.7029    7969.2802    7986.3605     8253.468   -1697.2317     136.4587 
     820  15.745441689446753486    15.745442    15.745442    8109.4913    8113.9768    7983.1234    8231.3738   -1697.0904    132.06748 
     830  15.745441689446753486    15.745442    15.745442    7837.4259    7902.8331     7854.125    7755.3195   -1697.2972    138.49022 
     840  15.745441689446753486    15.745442    15.745442    7484.3612    7552.8919    7699.3827     7200.809   -1697.6055    148.06098 
     850  15.745441689446753486    15.745442    15.745442    7311.3068     7328.824    7609.4734    6995.6229   -1697.7214    151.66161 
     860  15.745441689446753486    15.745442    15.745442    7381.3575     7308.735    7590.4652    7244.8722   -1697.5841    147.40059 
     870  15.745441689446753486    15.745442    15.745442    7541.2527    7380.9831    7565.1937    7677.5813   -1697.4155    142.16821 
     880  15.745441689446753486    15.745442    15.745442    7599.7474    7403.6787    7470.9326    7924.6309   -1697.4919    144.54264 
     890  15.745441689446753486    15.745442    15.745442    7523.6954    7361.0271    7375.4364    7834.6226   -1697.8514    155.70797 
     900  15.745441689446753486    15.745442    15.745442    7458.9118     7386.316    7432.4117    7558.0078   -1698.2279    167.39693 
     910  15.745441689446753486    15.745442    15.745442    7557.9037    7607.4542    7692.5606    7373.6962   -1698.2781    168.95586 
     920  15.745441689446753486    15.745442    15.745442     7796.845    7950.6201    8011.0569     7428.858    -1697.898    157.15061 
     930  15.745441689446753486    15.745442    15.745442    7965.3253    8129.1774    8149.1988    7617.5997   -1697.3477    140.06106 
     940  15.745441689446753486    15.745442    15.745442    7848.5448     7882.199    7960.6379    7702.7976   -1697.0558    130.99719 
     950  15.745441689446753486    15.745442    15.745442    7451.6824    7259.1741    7531.7488    7564.1243    -1697.243    136.81055 
     960  15.745441689446753486    15.745442    15.745442    7048.5195    6659.9733    7156.6097    7328.9756   -1697.7151    151.47005 
     970  15.745441689446753486    15.745442    15.745442    6975.5501    6534.1687    7136.5542    7255.9272   -1698.0456    161.73227 
     980  15.745441689446753486    15.745442    15.745442    7334.5782     6985.053    7546.0116    7472.6699   -1697.9716    159.43746 
     990  15.745441689446753486    15.745442    15.745442    7866.1917     7657.847    8117.6905    7823.0376    -1697.629    148.80045 
    1000  15.745441689446753486    15.745442    15.745442    8139.7847    8026.9851     8396.806    7995.5631   -1697.4116      142.051 
    1010  15.745441689446753486    15.745442    15.745442    7923.7162    7833.0699    8125.0878    7812.9908   -1697.5761    147.15854 
    1020  15.745441689446753486    15.745442    15.745442    7392.9382    7280.4999    7507.5179    7390.7969   -1697.9697    159.37873 
    1030  15.745441689446753486    15.745442    15.745442    6974.8772    6821.1238     7060.016    7043.4919   -1698.1743    165.73206 
    1040  15.745441689446753486    15.745442    15.745442    6976.8441    6756.2169     7137.096    7037.2194    -1697.925    157.98932 
    1050  15.745441689446753486    15.745442    15.745442    7341.6225    7035.4989     7616.678    7372.6904   -1697.3674    140.67436 
    1060  15.745441689446753486    15.745442    15.745442    7737.1684    7364.5783    8068.6235    7778.3033   -1696.9348    127.24119 
    1070  15.745441689446753486    15.745442    15.745442    7869.7471    7474.9869    8178.1484    7956.1061   -1696.9919    129.01463 
    1080  15.745441689446753486    15.745442    15.745442    7715.0996    7337.4286    7969.4258    7838.4443   -1697.5296    145.71303 
    1090  15.745441689446753486    15.745442    15.745442    7483.2074    7153.4571    7696.1631    7600.0021   -1698.1467    164.87758 
    1100  15.745441689446753486    15.745442    15.745442    7409.5898    7158.9584    7597.9338    7471.8773    -1698.373    171.90471 
    1110  15.745441689446753486    15.745442    15.745442    7562.3368    7404.4002    7737.8987    7544.7114   -1698.0727    162.58024 
    1120  15.745441689446753486    15.745442    15.745442    7794.8716    7703.6137    7982.3752    7698.6259   -1697.5357    145.90632 
    1130  15.745441689446753486    15.745442    15.745442    7883.9385     7812.659    8109.2737    7729.8828    -1697.181    134.88931 
    1140  15.745441689446753486    15.745442    15.745442    7730.2591    7659.5032    7971.8908    7559.3833   -1697.1952    135.32635 
    1150  15.745441689446753486    15.745442    15.745442    7447.3574    7406.7869    7621.5141    7313.7714   -1697.4341    142.74427 
    1160  15.745441689446753486    15.745442    15.745442    7274.6133    7301.4097    7305.7581     7216.672   -1697.6158    148.38573 
    1170  15.745441689446753486    15.745442    15.745442    7372.5385     7454.584    7275.5659    7387.4657   -1697.5985    147.85216 
    1180  15.745441689446753486    15.745442    15.745442    7662.5755    7735.9494    7540.2092    7711.5679   -1697.5134    145.21484 
    1190  15.745441689446753486    15.745442    15.745442     7876.954    7864.1093    7854.5284    7912.2244   -1697.6319    148.89705 
    1200  15.745441689446753486    15.745442    15.745442     7797.824    7643.0102    7952.6749    7797.7869   -1698.0502    161.88798 
    1210  15.745441689446753486    15.745442    15.745442    7474.6825    7176.6638    7776.0826     7471.301   -1698.4937    175.65949 
    1220  15.745441689446753486    15.745442    15.745442    7203.5291    6845.2228    7505.1755    7260.1889   -1698.5076    176.08544 
    1230  15.745441689446753486    15.745442    15.745442    7251.8076     6978.153    7386.5322    7390.7378   -1697.9094    157.50653 
    1240  15.745441689446753486    15.745442    15.745442     7577.693      7498.33     7488.034     7746.715   -1697.0435    130.61938 
    1250  15.745441689446753486    15.745442    15.745442    7854.3777    7946.2476    7638.2517    7978.6338   -1696.5401     114.9852 
    1260  15.745441689446753486    15.745442    15.745442     7799.868    7924.0181    7630.4577    7845.1282   -1696.7838    122.55257 
    1270  15.745441689446753486    15.745442    15.745442    7472.0924    7501.5912    7469.4333    7445.2527    -1697.588    147.52663 
    1280  15.745441689446753486    15.745442    15.745442    7215.4871    7140.1708    7374.7351    7131.5554   -1698.3612    171.53927 
    1290  15.745441689446753486    15.745442    15.745442     7313.337     7209.119     7540.219    7190.6729   -1698.5894    178.63033 
    1300  15.745441689446753486    15.745442    15.745442     7703.955    7620.5756    7904.4213    7586.8683    -1698.214    166.97516 
    1310  15.745441689446753486    15.745442    15.745442    8038.6339    7951.3876    8171.5056    7993.0086   -1697.6214    148.57376 
    1320  15.745441689446753486    15.745442    15.745442    8016.1698    7876.3598    8096.9997    8075.1498   -1697.2792    137.94428 
    1330  15.745441689446753486    15.745442    15.745442    7657.4151    7451.7992     7743.012     7777.434   -1697.3373    139.74288 
    1340  15.745441689446753486    15.745442    15.745442    7270.6474    7018.8287    7429.9925    7363.1209   -1697.5526    146.42554 
    1350  15.745441689446753486    15.745442    15.745442    7167.8775    6889.7534    7433.0913    7180.7879   -1697.5874    147.50633 
    1360  15.745441689446753486    15.745442    15.745442    7401.9751    7108.1979    7734.7156    7363.0118   -1697.3648    140.59679 
    1370  15.745441689446753486    15.745442    15.745442    7744.5009    7447.1211    8056.2779    7730.1037   -1697.1373    133.53397 
    1380  15.745441689446753486    15.745442    15.745442    7894.2678    7620.0272    8101.0656    7961.7107   -1697.2266    136.31109 
    1390  15.745441689446753486    15.745442    15.745442    7734.7261    7534.1945    7804.3268    7865.6571    -1697.686    150.57642 
    1400  15.745441689446753486    15.745442    15.745442    7428.5291    7366.0389    7393.2963    7526.2521   -1698.1967    166.43432 
    1410  15.745441689446753486    15.745442    15.745442    7265.3247    7371.0254    7198.8335    7226.1152   -1698.3311    170.60783 
    1420  15.745441689446753486    15.745442    15.745442    7389.8108    7599.0931    7368.6135    7201.7258   -1697.9697    159.38654 
    1430  15.745441689446753486    15.745442    15.745442    7655.8483    7817.6899    7720.3501    7429.5048   -1697.4526    143.33407 
    1440  15.745441689446753486    15.745442    15.745442     7763.896    7738.0422    7898.0981    7655.5477   -1697.2754    137.83233 
    1450  15.745441689446753486    15.745442    15.745442    7564.9318    7318.5981    7720.3127    7655.8846   -1697.6155    148.39219 
    1460  15.745441689446753486    15.745442    15.745442    7235.7673     6855.338    7377.4914    7474.4725    -1698.156    165.17316 
    1470  15.745441689446753486    15.745442    15.745442    7131.0606    6745.0939    7257.7366    7390.3513   -1698.3689    171.78253 
    1480  15.745441689446753486    15.745442    15.745442    7433.8938    7133.5054     7558.861    7609.3149   -1697.9977    160.25454 
    1490  15.745441689446753486    15.745442    15.745442    7952.1003    7780.0472    8080.3442    7995.9096    -1697.311    138.93279 
    1500  15.745441689446753486    15.745442    15.745442    8267.4467     8228.146    8393.5515    8180.6426   -1696.8848    125.69739 
    1510  15.745441689446753486    15.745442    15.745442     8099.884    8153.8565    8207.4088    7938.3868   -1697.0785    131.71185 
    1520  15.745441689446753486    15.745442    15.745442    7554.7151    7632.6501    7610.9971    7420.4981   -1697.6907    150.71997 
    1530  15.745441689446753486    15.745442    15.745442     7040.585     7077.795    7021.2851    7022.6748   -1698.1421    164.73684 
    1540  15.745441689446753486    15.745442    15.745442    6936.7497    6899.2453     6873.691    7037.3129   -1698.0133    160.73869 
    1550  15.745441689446753486    15.745442    15.745442    7290.8883    7183.4615    7273.7572    7415.4462   -1697.4196    142.30399 
    1560  15.745441689446753486    15.745442    15.745442    7792.6445    7653.6598    7898.2388     7826.035   -1696.9034    126.27592 
    1570  15.745441689446753486    15.745442    15.745442    8034.9906    7913.0988    8250.8699    7941.0032   -1696.9729    128.43804 
    1580  15.745441689446753486    15.745442    15.745442    7849.5055      7763.51    8083.2509    7701.7557   -1697.6704    150.09975 
    1590  15.745441689446753486    15.745442    15.745442    7440.8429    7355.6329    7613.6455    7353.2504   -1698.5069    176.07571 
    1600  15.745441689446753486    15.745442    15.745442    7208.8719    7064.1609    7326.9909    7235.4639   -1698.8324    186.18315 
    1610  15.745441689446753486    15.745442    15.745442    7398.9775     7162.641    7524.7462    7509.5455   -1698.3627    171.59531 
    1620  15.745441689446753486    15.745442    15.745442     7876.747    7556.4416    8053.6551    8020.1443   -1697.4221    142.38608 
    1630  15.745441689446753486    15.745442    15.745442    8239.4691    7866.2518    8465.4982    8386.6573   -1696.6837    119.45452 
    1640  15.745441689446753486    15.745442    15.745442    8161.5222    7798.9664    8408.1015    8277.4986    -1696.633    117.87788 
    1650  15.745441689446753486    15.745442    15.745442    7670.2301    7420.2942    7901.8299    7688.5662    -1697.221     136.1362 
    1660  15.745441689446753486    15.745442    15.745442    7124.3743    7072.3475    7307.5773    6993.1981   -1697.9685    159.35161 
    1670  15.745441689446753486    15.745442    15.745442     6916.189    7046.6079    7030.2098    6671.7494    -1698.371    171.85362 
    1680  15.745441689446753486    15.745442    15.745442    7159.1413    7342.3398    7213.2245    6921.8596   -1698.2452    167.95032 
    1690  15.745441689446753486    15.745442    15.745442    7628.6579    7708.6444    7670.2267    7507.1026    -1697.792    153.87683 
    1700  15.745441689446753486    15.745442    15.745442    7976.7051    7868.4457    8069.3459    7992.3236   -1697.3937    141.50825 
    1710  15.745441689446753486    15.745442    15.745442    7995.5316    7699.0538    8172.3807    8115.1604   -1697.3205    139.23313 
    1720  15.745441689446753486    15.745442    15.745442    7721.6916    7284.6694    7961.2444     7919.161    -1697.556    146.54609 
    1730  15.745441689446753486    15.745442    15.745442    7369.7512    6876.4813    7622.2634    7610.5088   -1697.8604          156 
    1740  15.745441689446753486    15.745442    15.745442    7179.9524     6752.801    7406.0754    7380.9809   -1697.9851    159.87148 
    1750  15.745441689446753486    15.745442    15.745442    7262.8889    7011.1475    7444.4497    7333.0695   -1697.8449      155.518 
    1760  15.745441689446753486    15.745442    15.745442     7540.449    7472.8932     7682.428    7466.0258   -1697.5496    146.34941 
    1770  15.745441689446753486    15.745442    15.745442    7815.2739    7824.4731    7953.1651    7668.1836   -1697.3174    139.13828 
    1780  15.745441689446753486    15.745442    15.745442     7903.204    7864.3081    8089.5234    7755.7804   -1697.3244    139.35601 
    1790  15.745441689446753486    15.745442    15.745442    7748.9915    7633.8321     8005.558    7607.5846   -1697.5743    147.11618 
    1800  15.745441689446753486    15.745442    15.745442    7461.0109     7344.456     7741.344    7297.2327   -1697.8915    156.96675 
    1810  15.745441689446753486    15.745442    15.745442     7237.636    7198.7903    7458.6052    7055.5125   -1698.0506    161.90936 
    1820  15.745441689446753486    15.745442    15.745442    7229.9234    7265.7671    7350.5322    7073.4708   -1697.9365    158.36483 
    1830  15.745441689446753486    15.745442    15.745442    7434.9087    7468.7705    7491.8059    7344.1498   -1697.6267    148.74419 
    1840  15.745441689446753486    15.745442    15.745442      7698.72     7657.366    7753.4048    7685.3892    -1697.342     139.9043 
    1850  15.745441689446753486    15.745442    15.745442    7837.4285    7701.6772    7913.4692    7897.1392   -1697.2804     137.9905 
    1860  15.745441689446753486    15.745442    15.745442    7785.5287    7578.9036    7880.6291    7897.0534    -1697.461    143.59821 
    1870  15.745441689446753486    15.745442    15.745442    7649.6974    7418.3221    7781.6612    7749.1091    -1697.716    151.51697 
    1880  15.745441689446753486    15.745442    15.745442     7611.039    7424.2873    7812.5067    7596.3229   -1697.8283    155.00529 
    1890  15.745441689446753486    15.745442    15.745442    7736.7875     7674.291    7995.6937    7540.3779   -1697.7031    151.11769 
    1900  15.745441689446753486    15.745442    15.745442    7882.8364     7976.996    8110.9409    7560.5724   -1697.4576    143.49349 
    1910  15.745441689446753486    15.745442    15.745442    7820.4306    8005.8855    7910.4593    7544.9469    -1697.345    139.99918 
    1920  15.745441689446753486    15.745442    15.745442    7476.4319    7621.6039    7389.2978    7418.3941   -1697.5334    145.85132 
    1930  15.745441689446753486    15.745442    15.745442    7044.3369     7043.907    6830.4792    7258.6245   -1697.9274     158.0875 
    1940  15.745441689446753486    15.745442    15.745442    6859.2697    6693.7298    6624.0366    7260.0428   -1698.2269    167.38753 
    1950  15.745441689446753486    15.745442    15.745442    7120.7295    6847.0343    6978.2857    7536.8684   -1698.1857    166.11023 
    1960  15.745441689446753486    15.745442    15.745442    7692.2773    7390.6641    7727.3745    7958.7932   -1697.8422    155.44237 
    1970  15.745441689446753486    15.745442    15.745442    8178.5562    7894.1768    8425.8476    8215.6442   -1697.5145    145.26839 
    1980  15.745441689446753486    15.745442    15.745442    8233.7961    7965.9155    8656.8151    8078.6577   -1697.5235     145.5491 
    1990  15.745441689446753486    15.745442    15.745442    7844.5746    7589.5909    8323.8979     7620.235   -1697.8507    155.70563 
    2000  15.745441689446753486    15.745442    15.745442     7342.356    7131.3902    7711.1275    7184.5502   -1698.0975      163.368 
    2010  15.745441689446753486    15.745442    15.745442    7130.9067    7008.2237    7258.5993     7125.897   -1697.8588    155.95039 
    2020  15.745441689446753486    15.745442    15.745442    7356.6629    7315.3797    7246.6556    7507.9533   -1697.1508    133.96402 
    2030  15.745441689446753486    15.745442    15.745442    7793.9532    7762.7837    7607.7214    8011.3546   -1696.4644    112.65114 
    2040  15.745441689446753486    15.745442    15.745442    8043.0468    7958.3475    7995.5827    8175.2103   -1696.3871    110.25357 
    2050  15.745441689446753486    15.745442    15.745442    7874.2911    7744.4587    8081.1412    7797.2736   -1697.1079    132.63896 
    2060  15.745441689446753486    15.745442    15.745442     7411.359    7292.7137    7825.9041    7115.4592   -1698.2139    166.98826 
    2070  15.745441689446753486    15.745442    15.745442    7023.7676    6944.2818    7512.3897    6614.6313   -1698.9797    190.77271 
    2080  15.745441689446753486    15.745442    15.745442    7041.1482    6959.9498    7511.1344    6652.3605   -1698.9248    189.06981 
    2090  15.745441689446753486    15.745442    15.745442    7474.7979    7319.4891    7911.5304    7193.3742   -1698.1653    165.48296 
    2100  15.745441689446753486    15.745442    15.745442    7988.1614    7725.3273    8379.3396    7859.8171   -1697.2815    138.03696 
    2110  15.745441689446753486    15.745442    15.745442      8185.65    7847.6147    8468.3756    8240.9598   -1696.8434    124.42759 
    2120  15.745441689446753486    15.745442    15.745442    7952.8682    7608.3263    8076.8719    8173.4064   -1696.9946    129.11984 
    2130  15.745441689446753486    15.745442    15.745442    7526.8447    7235.3993    7547.5418    7797.5931   -1697.4292    142.61429 
    2140  15.745441689446753486    15.745442    15.745442     7247.754    7040.1322    7304.0014    7399.1285   -1697.7434    152.37268 
    2150  15.745441689446753486    15.745442    15.745442    7251.8405    7135.3652    7438.6799    7181.4763   -1697.8044    154.27499 
    2160  15.745441689446753486    15.745442    15.745442    7405.3771    7369.6314    7692.9845    7153.5155   -1697.7857    153.69743 
    2170  15.745441689446753486    15.745442    15.745442    7510.0447    7538.8211    7785.9447    7205.3682   -1697.8877    156.86626 
    2180  15.745441689446753486    15.745442    15.745442    7517.5433     7594.829    7687.9228     7269.878    -1698.083    162.93041 
    2190  15.745441689446753486    15.745442    15.745442    7528.5212    7620.4419    7580.1996    7384.9221    -1698.144    164.82136 
    2200  15.745441689446753486    15.745442    15.745442    7621.8903    7674.4754    7595.0358    7596.1599   -1697.8977    157.16998 
    2210  15.745441689446753486    15.745442    15.745442    7737.0137    7706.6434    7662.4021    7841.9955   -1697.4419    143.01689 
    2220  15.745441689446753486    15.745442    15.745442    7738.0459    7613.1274    7637.7071    7963.3033   -1697.0971    132.30991 
    2230  15.745441689446753486    15.745442    15.745442    7572.3506     7372.492     7499.923    7844.6368   -1697.1201    133.02442 
    2240  15.745441689446753486    15.745442    15.745442    7360.2331    7132.1258    7389.4246    7559.1489   -1697.4605    143.59239 
    2250  15.745441689446753486    15.745442    15.745442    7318.1037    7135.9348    7471.2415    7347.1348   -1697.8046    154.27991 
    2260  15.745441689446753486    15.745442    15.745442    7561.9479    7506.4501    7760.3554    7419.0382   -1697.8664     156.1995 
    2270  15.745441689446753486    15.745442    15.745442    7968.4843    8067.3242    8085.3272    7752.8014   -1697.6504    149.49477 
    2280  15.745441689446753486    15.745442    15.745442    8237.4719    8419.6972    8212.0767    8080.6418   -1697.4442     143.0941 
    2290  15.745441689446753486    15.745442    15.745442    8123.0627    8253.7132    8004.2265    8111.2484   -1697.5316    145.80872 
    2300  15.745441689446753486    15.745442    15.745442    7654.7378    7640.3726    7535.0938    7788.7471   -1697.8884    156.88757 
    2310  15.745441689446753486    15.745442    15.745442    7137.8185    7001.9835    7077.5366    7333.9355   -1698.1836    166.05564 
    2320  15.745441689446753486    15.745442    15.745442    6907.9057    6757.7998    6929.3012    7036.6161   -1698.1098     163.7612 
    2330  15.745441689446753486    15.745442    15.745442    7063.8076    6989.4217    7172.8975    7029.1037   -1697.6905    150.74338 
    2340  15.745441689446753486    15.745442    15.745442    7419.9558    7428.8458    7599.3582    7231.6634   -1697.2524    137.13619 
    2350  15.745441689446753486    15.745442    15.745442    7700.2923    7731.3169    7910.4102    7459.1498   -1697.1209    133.05183 
    2360  15.745441689446753486    15.745442    15.745442    7781.2596    7750.4001     7998.874    7594.5048   -1697.3392    139.83019 
    2370  15.745441689446753486    15.745442    15.745442     7760.847    7609.1694    8004.3711    7669.0004   -1697.6465    149.37091 
    2380  15.745441689446753486    15.745442    15.745442    7803.6644    7550.6647    8088.7982    7771.5302   -1697.7389     152.2437 
    2390  15.745441689446753486    15.745442    15.745442    7930.0692    7684.0744    8205.8757    7900.2577   -1697.5764    147.19801 
    2400  15.745441689446753486    15.745442    15.745442    7967.7513    7841.7574    8141.7297    7919.7669   -1697.4286    142.61462 
    2410  15.745441689446753486    15.745442    15.745442    7726.0152    7729.8003    7775.4195    7672.8257   -1697.6017    147.99361 
    2420  15.745441689446753486    15.745442    15.745442    7240.4077    7261.5058    7266.0718    7193.6455   -1698.1016    163.51699 
    2430  15.745441689446753486    15.745442    15.745442    6819.5259    6718.5435    6959.7614     6780.273   -1698.5675    177.98275 
    2440  15.745441689446753486    15.745442    15.745442    6805.0535    6540.5625    7096.4129    6778.1852   -1698.5542    177.56736 
    2450  15.745441689446753486    15.745442    15.745442    7249.6599     6912.231    7585.9366     7250.812   -1697.9282    158.12709 
    2460  15.745441689446753486    15.745442    15.745442    7837.6673    7561.1776    8080.0566    7871.7677   -1697.0388    130.50517 
    2470  15.745441689446753486    15.745442    15.745442    8147.2256    7995.5546     8261.215    8184.9072    -1696.487    113.36977 
    2480  15.745441689446753486    15.745442    15.745442     7992.105    7925.2209    8058.5652     7992.529   -1696.6566    118.63655 
    2490  15.745441689446753486    15.745442    15.745442     7538.247    7458.3181    7663.6824    7492.7404    -1697.414    142.15876 
    2500  15.745441689446753486    15.745442    15.745442    7133.6063       6950.4    7370.7546    7079.6644   -1698.2397    167.80275 
    2510  15.745441689446753486    15.745442    15.745442    7031.0533    6705.2879    7359.1095    7028.7624   -1698.6388     180.1988 
    2520  15.745441689446753486    15.745442    15.745442    7238.2414    6797.3136    7593.1393    7324.2713   -1698.4575    174.57061 
    2530  15.745441689446753486    15.745442    15.745442    7578.1876    7105.0593    7903.6146    7725.8888    -1697.895    157.10415 
    2540  15.745441689446753486    15.745442    15.745442    7850.1455    7452.8014    8130.6675    7966.9674   -1697.2979    138.55698 
    2550  15.745441689446753486    15.745442    15.745442    7938.9296     7717.356    8187.9939     7911.439   -1696.9416    127.48785 
    2560  15.745441689446753486    15.745442    15.745442    7838.5866    7842.2184    8066.6459    7606.8955   -1696.9223    126.88884 
    2570  15.745441689446753486    15.745442    15.745442    7627.2996    7807.0776    7835.2542    7239.5671     -1697.17    134.58102 
    2580  15.745441689446753486    15.745442    15.745442    7423.8033    7631.2246    7617.8481    7022.3371   -1697.5343    145.89812 
    2590  15.745441689446753486    15.745442    15.745442    7328.7626    7393.8002    7512.5601    7079.9276   -1697.8745    156.46764 
    2600  15.745441689446753486    15.745442    15.745442    7375.5513    7211.0173    7515.4985    7400.1382   -1698.0987    163.43016 
    2610  15.745441689446753486    15.745442    15.745442    7523.5019    7167.9432    7554.5752    7847.9873   -1698.1585    165.28826 
    2620  15.745441689446753486    15.745442    15.745442    7689.2498     7265.345    7588.0082    8214.3962   -1698.0483     161.8663 
    2630  15.745441689446753486    15.745442    15.745442    7791.1723    7426.5766    7634.7696    8312.1706   -1697.8175    154.69898 
    2640  15.745441689446753486    15.745442    15.745442    7781.9953    7537.1664    7713.8248    8094.9948   -1697.5638    146.81842 
    2650  15.745441689446753486    15.745442    15.745442    7664.0741    7517.3192    7779.9864    7694.9166   -1697.3972    141.64477 
    2660  15.745441689446753486    15.745442    15.745442    7489.6994     7396.072    7743.3186    7329.7076   -1697.3894    141.40163 
    2670  15.745441689446753486    15.745442    15.745442    7338.2473    7285.2364    7571.3734     7158.132   -1697.5272    145.68131 
    2680  15.745441689446753486    15.745442    15.745442    7275.4591    7278.9453     7353.956     7193.476   -1697.7177    151.59864 
    2690  15.745441689446753486    15.745442    15.745442    7324.9249    7386.8175     7240.028     7347.929   -1697.8568    155.92128 
    2700  15.745441689446753486    15.745442    15.745442    7462.2188     7534.136    7317.5278    7534.9927    -1697.893    157.04567 
    2710  15.745441689446753486    15.745442    15.745442    7626.8906    7629.6433    7553.0539    7697.9746   -1697.8309    155.11834 
    2720  15.745441689446753486    15.745442    15.745442    7748.7886     7638.969    7821.4331    7785.9636   -1697.7102    151.36966 
    2730  15.745441689446753486    15.745442    15.745442    7776.9014    7582.7811    7989.9458    7757.9772    -1697.592    147.69751 
    2740  15.745441689446753486    15.745442    15.745442    7707.5599    7498.5778    8001.4287    7622.6733   -1697.5277    145.70109 
    2750  15.745441689446753486    15.745442    15.745442    7601.2442     7434.887    7903.5344    7465.3113   -1697.5118    145.20583 
    2760  15.745441689446753486    15.745442    15.745442    7555.5588    7453.2247    7809.0384    7404.4132   -1697.4823    144.28919 
    2770  15.745441689446753486    15.745442    15.745442    7618.2217    7572.3908    7798.3432    7483.9313      -1697.4     141.7339 
    2780  15.745441689446753486    15.745442    15.745442    7718.2374    7697.6317    7844.0585    7613.0218   -1697.3261    139.44168 
    2790  15.745441689446753486    15.745442    15.745442    7719.3122    7665.1938    7847.7107    7645.0322    -1697.392    141.48831 
    2800  15.745441689446753486    15.745442    15.745442    7556.4001    7407.6001    7744.9782    7516.6218   -1697.6623    149.88589 
    2810  15.745441689446753486    15.745442    15.745442    7312.7608    7055.7601    7578.2941    7304.2283    -1698.028    161.24318 
    2820  15.745441689446753486    15.745442    15.745442    7156.7714    6854.5665    7468.4041    7147.3436   -1698.2586    168.40465 
    2830  15.745441689446753486    15.745442    15.745442    7202.8462    6967.1947    7504.6375    7136.7063   -1698.1762    165.84524 
    2840  15.745441689446753486    15.745442    15.745442     7425.019    7337.7208    7658.0233    7279.3128   -1697.7937    153.96793 
    2850  15.745441689446753486    15.745442    15.745442    7688.8694    7739.8938    7807.4971    7519.2172   -1697.3207    139.27721 
    2860  15.745441689446753486    15.745442    15.745442    7851.7817    7947.2663     7851.644    7756.4349   -1697.0404    130.57316 
    2870  15.745441689446753486    15.745442    15.745442    7832.0073    7856.4685    7780.5447    7859.0088   -1697.1377    133.59518 
    2880  15.745441689446753486    15.745442    15.745442    7646.3672    7538.3844    7666.7508    7733.9665   -1697.5763    147.21853 
    2890  15.745441689446753486    15.745442    15.745442    7419.3665    7211.1224    7603.0373    7443.9397   -1698.0968    163.38168 
    2900  15.745441689446753486    15.745442    15.745442    7314.7225    7093.8227    7637.0309    7213.3139   -1698.3565      171.446 
    2910  15.745441689446753486    15.745442    15.745442     7416.832    7255.0584    7750.4694    7244.9683   -1698.1635    165.45408 
    2920  15.745441689446753486    15.745442    15.745442    7647.5042    7573.5793    7859.6334    7509.2999    -1697.651    149.54029 
    2930  15.745441689446753486    15.745442    15.745442    7802.0321    7816.4596     7834.991    7754.6455   -1697.2036    135.64636 
    2940  15.745441689446753486    15.745442    15.745442    7718.7636    7800.2091    7597.8673    7758.2144   -1697.1475    133.90228 
    2950  15.745441689446753486    15.745442    15.745442    7448.6848     7545.754    7250.3082    7549.9922   -1697.4798    144.22166 
    2960  15.745441689446753486    15.745442    15.745442    7238.1258    7299.1897    7053.4524    7361.7355   -1697.8926    157.04075 
    2970  15.745441689446753486    15.745442    15.745442    7301.7715    7325.3349    7199.5581    7380.4214   -1698.0522      161.997 
    2980  15.745441689446753486    15.745442    15.745442    7604.4631    7623.9161    7603.8013    7585.6719   -1697.8656    156.20562 
    2990  15.745441689446753486    15.745442    15.745442     7878.581    7885.3015    7958.1004    7792.3412   -1697.5223    145.54388 
    3000  15.745441689446753486    15.745442    15.745442     7868.591    7784.7058    8004.2131    7816.8542   -1697.3121    139.01675 
    3010  15.745441689446753486    15.745442    15.745442    7568.0288     7327.467    7749.2797    7627.3396     -1697.38    141.12492 
    3020  15.745441689446753486    15.745442    15.745442     7225.975    6867.8596    7439.9549    7370.1105   -1697.6104    148.27952 
    3030  15.745441689446753486    15.745442    15.745442     7132.623    6785.8162    7352.0036    7260.0491   -1697.7488    152.57611 
    3040  15.745441689446753486    15.745442    15.745442     7375.393    7152.3053     7564.985    7408.8886   -1697.6589    149.78803 
    3050  15.745441689446753486    15.745442    15.745442    7771.6491    7698.4809     7901.462    7715.0043   -1697.4643    143.74533 
    3060  15.745441689446753486    15.745442    15.745442    8027.5037    8067.7768    8086.2191    7928.5152   -1697.4303    142.69343 
    3070  15.745441689446753486    15.745442    15.745442    7964.2073    8073.3436    7968.4618    7850.8164   -1697.7045    151.21005 
    3080  15.745441689446753486    15.745442    15.745442    7631.1251    7776.3777    7616.2716    7500.7261   -1698.1514    165.08852 
    3090  15.745441689446753486    15.745442    15.745442    7257.8968    7399.9694    7251.9349    7121.7862   -1698.4308    173.76457 
    3100  15.745441689446753486    15.745442    15.745442    7094.6668    7174.2173    7112.1421    6997.6409   -1698.2652    168.62198 
    3110  15.745441689446753486    15.745442    15.745442    7235.6557    7191.0846    7303.9493    7211.9334   -1697.6784    150.39537 
    3120  15.745441689446753486    15.745442    15.745442    7551.4446    7357.2113    7708.6358    7588.4868   -1696.9996    129.31355 
    3130  15.745441689446753486    15.745442    15.745442    7792.8653     7487.347    8033.7076    7857.5413   -1696.6328    117.92406 
    3140  15.745441689446753486    15.745442    15.745442    7797.2186    7466.2197    8046.2222    7879.2138   -1696.7833    122.59617 
    3150  15.745441689446753486    15.745442    15.745442    7620.7601    7345.5431    7786.9797    7729.7576   -1697.3398    139.88006 
    3160  15.745441689446753486    15.745442    15.745442    7464.6408    7281.4375     7513.989    7598.4958   -1697.9733    159.55857 
    3170  15.745441689446753486    15.745442    15.745442    7459.2171    7355.4658    7423.0074    7599.1783   -1698.3716    171.93057 
    3180  15.745441689446753486    15.745442    15.745442    7537.7785    7467.1298    7469.7717    7676.4341     -1698.44    174.05892 
    3190  15.745441689446753486    15.745442    15.745442    7548.2599    7449.2872    7496.4064    7699.0862   -1698.3006    169.73139 
    3200  15.745441689446753486    15.745442    15.745442    7454.1937     7281.739    7469.9297    7610.9123   -1698.0996    163.48849 
    3210  15.745441689446753486    15.745442    15.745442    7373.9614    7132.4063    7510.8179    7478.6599   -1697.8499    155.72766 
    3220  15.745441689446753486    15.745442    15.745442    7431.2928    7183.1001    7695.8472     7414.931   -1697.4895    144.53317 
    3230  15.745441689446753486    15.745442    15.745442    7607.9911    7443.4126    7914.6512    7465.9096   -1697.0603    131.20183 
    3240  15.745441689446753486    15.745442    15.745442    7766.1007    7734.6481    7977.2601    7586.3939   -1696.7646    122.02157 
    3250  15.745441689446753486    15.745442    15.745442    7782.3599     7839.861    7817.8693    7689.3493   -1696.8259     123.9251 
    3260  15.745441689446753486    15.745442    15.745442    7646.3577    7681.8515    7556.4587    7700.7628   -1697.2851    138.18817 
    3270  15.745441689446753486    15.745442    15.745442    7452.9431    7371.6254    7380.9831    7606.2209    -1697.921    157.93904 
    3280  15.745441689446753486    15.745442    15.745442    7331.1142    7111.1987    7402.3249    7479.8188   -1698.3796     172.1839 
    3290  15.745441689446753486    15.745442    15.745442    7371.6631    7060.7579    7606.7414    7447.4902   -1698.4135    173.23764 
    3300  15.745441689446753486    15.745442    15.745442    7563.5996    7251.0116      7874.68    7565.1072   -1698.0339    161.45007 
    3310  15.745441689446753486    15.745442    15.745442    7780.3572    7568.7655    8034.7136    7737.5926   -1697.4923    144.62854 
    3320  15.745441689446753486    15.745442    15.745442    7857.3046    7819.7275    7957.7024     7794.484   -1697.1291     133.3506 
    3330  15.745441689446753486    15.745442    15.745442    7721.3215    7856.9758    7657.7356    7649.2532   -1697.1484    133.94774 
    3340  15.745441689446753486    15.745442    15.745442    7471.0881    7703.7117    7321.0941    7388.4587   -1697.4576    143.54817 
    3350  15.745441689446753486    15.745442    15.745442    7312.5098    7526.0378     7196.129    7215.3626   -1697.7593    152.91906 
    3360  15.745441689446753486    15.745442    15.745442    7370.3173    7448.1849    7378.2332    7284.5338   -1697.8423    155.50028 
    3370  15.745441689446753486    15.745442    15.745442    7556.8535    7422.7479     7697.714    7550.0986   -1697.7687    153.21857 
    3380  15.745441689446753486    15.745442    15.745442     7655.252      7315.25    7863.2484    7787.2576   -1697.7646    153.09336 
    3390  15.745441689446753486    15.745442    15.745442    7543.4882    7102.1139    7732.6859    7795.6649   -1697.9466    158.74672 
    3400  15.745441689446753486    15.745442    15.745442    7329.9658    6942.7065    7450.4479     7596.743   -1698.1749    165.83413 
    3410  15.745441689446753486    15.745442    15.745442    7257.0331    7036.7069    7317.1308    7417.2615   -1698.1826    166.06986 
    3420  15.745441689446753486    15.745442    15.745442    7460.3592    7418.8798    7503.5838    7458.6139   -1697.8438    155.54817 
    3430  15.745441689446753486    15.745442    15.745442    7820.1386     7884.349    7885.0374    7691.0294   -1697.3115    139.01679 
    3440  15.745441689446753486    15.745442    15.745442    8053.4282    8115.7074    8152.9122     7891.665   -1696.9137    126.66225 
    3450  15.745441689446753486    15.745442    15.745442    7958.2662    7928.9956    8083.9068    7861.8961   -1696.9145    126.68877 
    3460  15.745441689446753486    15.745442    15.745442    7584.7589    7440.0724    7722.2751    7591.9292   -1697.3194    139.26332 
    3470  15.745441689446753486    15.745442    15.745442    7200.0615    6993.3092    7338.1326    7268.7427   -1697.8562    155.93605 
    3480  15.745441689446753486    15.745442    15.745442    7079.6732    6892.4822    7208.1207    7138.4167   -1698.1599    165.36887 
    3490  15.745441689446753486    15.745442    15.745442    7298.5957    7167.1945    7416.4784    7312.1142    -1698.043    161.73799 
    3500  15.745441689446753486    15.745442    15.745442    7687.1001     7580.169    7810.4036    7670.7279    -1697.643    149.31746 
    3510  15.745441689446753486    15.745442    15.745442    7960.4627    7827.1132    8101.7228    7952.5522   -1697.3094    138.95889 
    3520  15.745441689446753486    15.745442    15.745442    7920.4322    7737.3977    8076.9617    7946.9371   -1697.3084    138.92892 
    3530  15.745441689446753486    15.745442    15.745442    7595.9623    7364.3685    7776.0285    7647.4898   -1697.6045    148.12175 
    3540  15.745441689446753486    15.745442    15.745442    7232.6565    6957.2027    7462.8102    7277.9567   -1697.9149    157.76251 
    3550  15.745441689446753486    15.745442    15.745442    7115.6807    6821.3066    7396.2822    7129.4534   -1697.9736    159.58693 
    3560  15.745441689446753486    15.745442    15.745442    7335.2012    7096.7361    7603.9035    7304.9641   -1697.7531     152.7388 
    3570  15.745441689446753486    15.745442    15.745442    7705.7919    7615.9259    7855.3123    7646.1376   -1697.4673     143.8652 
    3580  15.745441689446753486    15.745442    15.745442    7925.7314    8010.6954    7873.2849     7893.214   -1697.3857    141.33551 
    3590  15.745441689446753486    15.745442    15.745442    7822.5638    8003.6108    7585.1811    7878.8993   -1697.6146    148.44186 
    3600  15.745441689446753486    15.745442    15.745442    7479.2707    7635.9796    7182.9445    7618.8881   -1698.0035    160.51959 
    3610  15.745441689446753486    15.745442    15.745442    7159.0596    7222.6843    6973.7518    7280.7428    -1698.253     168.2686 
    3620  15.745441689446753486    15.745442    15.745442    7098.2302    7073.4848    7144.1286    7077.0772   -1698.1428    164.84665 
    3630  15.745441689446753486    15.745442    15.745442    7329.1729    7254.9057    7601.1508    7131.4622   -1697.7007    151.11656 
    3640  15.745441689446753486    15.745442    15.745442    7675.9953    7590.5966    8037.0034    7400.3859   -1697.1872    135.16932 
    3650  15.745441689446753486    15.745442    15.745442    7903.8988     7841.863    8163.1825     7706.651   -1696.9161    126.74876 
    3660  15.745441689446753486    15.745442    15.745442    7882.9557    7871.8549    7915.7761    7861.2361   -1697.0404    130.61014 
    3670  15.745441689446753486    15.745442    15.745442      7664.77    7689.3654    7500.7352    7804.2093   -1697.4572    143.55299 
    3680  15.745441689446753486    15.745442    15.745442    7432.2829    7415.7918    7237.9188     7643.138   -1697.8982    157.25285 
    3690  15.745441689446753486    15.745442    15.745442    7352.7981    7216.0163    7306.7532    7535.6247   -1698.1307    164.47469 
    3700  15.745441689446753486    15.745442    15.745442    7454.3974    7203.4202    7623.6873    7536.0847   -1698.1008    163.54787 
    3710  15.745441689446753486    15.745442    15.745442     7632.743    7377.9527    7949.3798    7570.8967   -1697.9158     157.8053 
    3720  15.745441689446753486    15.745442    15.745442     7757.923     7634.345     8092.725    7546.6989   -1697.7145    151.55098 
    3730  15.745441689446753486    15.745442    15.745442    7761.7145    7817.5296    8013.4128    7454.2012   -1697.5692    147.03884 
    3740  15.745441689446753486    15.745442    15.745442    7647.7896    7800.5964      7775.04    7367.7324   -1697.4926    144.65798 
    3750  15.745441689446753486    15.745442    15.745442     7466.466    7559.5198    7480.6668    7359.2114   -1697.4799    144.26588 
    3760  15.745441689446753486    15.745442    15.745442    7299.1399    7210.4238    7258.9504    7428.0455   -1697.5171    145.41994 
    3770  15.745441689446753486    15.745442    15.745442    7230.4753    6959.0184    7232.3315     7500.076   -1697.5773    147.29249 
    3780  15.745441689446753486    15.745442    15.745442    7303.8462    6965.7714    7444.5353     7501.232   -1697.6362    149.12242 
    3790  15.745441689446753486    15.745442    15.745442    7487.0987    7220.3059    7792.4157    7448.5744   -1697.6795    150.46745 
    3800  15.745441689446753486    15.745442    15.745442    7679.8442    7541.6782    8061.0109    7436.8436   -1697.6986     151.0608 
    3810  15.745441689446753486    15.745442    15.745442    7781.7983    7729.1745    8091.0012    7525.2192   -1697.6859    150.66581 
    3820  15.745441689446753486    15.745442    15.745442    7773.0174    7730.6893    7920.2428      7668.12   -1697.6294    148.91234 
    3830  15.745441689446753486    15.745442    15.745442    7711.2251    7654.3446    7723.9693    7755.3615   -1697.5247    145.65848 
    3840  15.745441689446753486    15.745442    15.745442    7651.0598    7618.3125    7631.1989    7703.6681   -1697.4162    142.29196 
    3850  15.745441689446753486    15.745442    15.745442    7592.2056    7616.3342    7638.9398    7521.3428    -1697.407    142.00994 
    3860  15.745441689446753486    15.745442    15.745442    7505.9405    7549.5713    7670.1774    7298.0726    -1697.585    147.54054 
    3870  15.745441689446753486    15.745442    15.745442    7391.7107    7364.7195    7668.9837    7141.4288   -1697.9323    158.32657 
    3880  15.745441689446753486    15.745442    15.745442    7301.8539     7131.679    7646.2999    7127.5829   -1698.2984    169.69642 
    3890  15.745441689446753486    15.745442    15.745442    7304.0166    6990.1505    7640.5745    7281.3248    -1698.462    174.77769 
    3900  15.745441689446753486    15.745442    15.745442    7419.1616     7033.244    7661.6327    7562.6082   -1698.2652     168.6656 
    3910  15.745441689446753486    15.745442    15.745442    7601.0359    7240.6761    7698.1856     7864.246   -1697.7425    152.43098 
    3920  15.745441689446753486    15.745442    15.745442    7763.2107    7503.9776    7740.8344    8044.8202   -1697.1333    133.51031 
    3930  15.745441689446753486    15.745442    15.745442    7821.6075    7690.7552    7774.6464     7999.421   -1696.7499    121.60267 
    3940  15.745441689446753486    15.745442    15.745442    7737.0492    7703.8525    7773.3744    7733.9206   -1696.7894    122.83033 
    3950  15.745441689446753486    15.745442    15.745442    7547.4835    7539.4217     7720.266    7382.7627   -1697.2145    136.03201 
    3960  15.745441689446753486    15.745442    15.745442    7362.4128    7310.7652    7641.1169    7135.3561   -1697.7813    153.63782 
    3970  15.745441689446753486    15.745442    15.745442    7304.1368    7184.8553    7608.0954    7119.4597   -1698.1913    166.37404 
    3980  15.745441689446753486    15.745442    15.745442    7417.1282    7260.5572    7668.5464     7322.281   -1698.2582    168.45359 
    3990  15.745441689446753486    15.745442    15.745442    7616.7954    7494.0755    7753.3412    7602.9696   -1697.9966    160.32759 
    4000  15.745441689446753486    15.745442    15.745442    7753.0264    7734.2639    7729.9982    7794.8172   -1697.5957    147.87978 
    4010  15.745441689446753486    15.745442    15.745442    7736.8176    7826.6865    7581.6509    7802.1154    -1697.295    138.53808 
    4020  15.745441689446753486    15.745442    15.745442    7593.9587    7708.0283    7443.7902    7630.0574   -1697.2354    136.68611 
    4030  15.745441689446753486    15.745442    15.745442    7425.0403    7438.1923     7461.075    7375.8536    -1697.393    141.58113 
    4040  15.745441689446753486    15.745442    15.745442     7331.543    7160.1582     7644.879    7189.5919   -1697.6316     148.9924 
    4050  15.745441689446753486    15.745442    15.745442    7359.1097    7022.3122    7853.7464    7201.2705   -1697.8168      154.745 
    4060  15.745441689446753486    15.745442    15.745442    7487.9111     7099.269    7931.4391    7433.0252   -1697.8933     157.1244 
    4070  15.745441689446753486    15.745442    15.745442    7648.2087    7335.5901    7857.8608    7751.1752   -1697.8812    156.75011 
    4080  15.745441689446753486    15.745442    15.745442    7745.0036     7572.703    7723.2103    7939.0975   -1697.8255    155.02229 
    4090  15.745441689446753486    15.745442    15.745442    7718.3235    7672.0618    7609.9011    7873.0076   -1697.7584    152.93739 
    4100  15.745441689446753486    15.745442    15.745442    7594.6844    7619.1586    7538.3582    7626.5364   -1697.6892    150.78857 
    4110  15.745441689446753486    15.745442    15.745442    7458.7573    7502.2563    7489.5617    7384.4538   -1697.6116    148.37642 
    4120  15.745441689446753486    15.745442    15.745442    7376.2231    7412.4577    7450.2763    7265.9352   -1697.5299    145.84073 
    4130  15.745441689446753486    15.745442    15.745442    7351.5779    7376.4051    7426.1032    7252.2255   -1697.4906     144.6208 
    4140  15.745441689446753486    15.745442    15.745442    7353.1495    7364.3833     7421.453    7273.6123   -1697.5593    146.75672 
    4150  15.745441689446753486    15.745442    15.745442    7363.9271    7346.1952    7435.3907    7310.1953   -1697.7436    152.48067 
    4160  15.745441689446753486    15.745442    15.745442     7404.255    7334.3836    7488.8446    7389.5368    -1697.948     158.8278 
    4170  15.745441689446753486    15.745442    15.745442    7504.3294    7366.6474    7623.9998    7522.3408   -1698.0247     161.2098 
    4180  15.745441689446753486    15.745442    15.745442    7655.3886    7448.9618     7841.326    7675.8779   -1697.8796    156.70337 
    4190  15.745441689446753486    15.745442    15.745442    7801.5516    7539.4532    8062.7939    7802.4078   -1697.5449    146.30858 
    4200  15.745441689446753486    15.745442    15.745442    7879.3717    7594.4434    8185.8564    7857.8152   -1697.1701    134.66786 
    4210  15.745441689446753486    15.745442    15.745442    7858.3629    7612.7351    8169.0336    7793.3199   -1696.9443    127.65454 
    4220  15.745441689446753486    15.745442    15.745442     7749.564    7615.8394    8046.2024    7586.6502   -1696.9988    129.34847 
    4230  15.745441689446753486    15.745442    15.745442    7584.0169    7590.3968    7860.3667    7301.2872   -1697.3395    139.93217 
    4240  15.745441689446753486    15.745442    15.745442    7402.7199    7493.1264    7640.5244    7074.5088   -1697.8363    155.36419 
    4250  15.745441689446753486    15.745442    15.745442    7264.3428    7330.2149    7440.9449    7021.8685   -1698.2809    169.17723 
    4260  15.745441689446753486    15.745442    15.745442    7230.6694    7196.3529    7341.0822    7154.5732   -1698.4947    175.81667 
    4270  15.745441689446753486    15.745442    15.745442    7327.8689    7200.9063    7386.6351    7396.0652   -1698.4124    173.26294 
    4280  15.745441689446753486    15.745442    15.745442    7518.7279    7352.6831    7546.5563    7656.9443    -1698.081    162.96859 
    4290  15.745441689446753486    15.745442    15.745442    7705.2409    7533.6616    7721.5602    7860.5009   -1697.6079    148.27456 
    4300  15.745441689446753486    15.745442    15.745442    7784.7196     7601.226    7828.8991    7924.0336   -1697.1333     133.5303 
    4310  15.745441689446753486    15.745442    15.745442    7732.7012    7534.6982    7864.2679    7799.1375   -1696.8147    123.63675 
    4320  15.745441689446753486    15.745442    15.745442    7611.7175    7431.3499    7856.8498    7546.9529    -1696.786    122.74466 
    4330  15.745441689446753486    15.745442    15.745442    7495.3752    7363.7349    7808.5541    7313.8365   -1697.0964    132.38758 
    4340  15.745441689446753486    15.745442    15.745442    7415.3314    7330.1475    7705.0804    7210.7664   -1697.6663    150.09325 
    4350  15.745441689446753486    15.745442    15.745442    7371.3155    7307.0459     7569.218    7237.6827   -1698.2836    169.26719 
    4360  15.745441689446753486    15.745442    15.745442    7371.1702    7295.2871    7477.4717    7340.7519   -1698.6614    181.00079 
    4370  15.745441689446753486    15.745442    15.745442    7454.4167    7351.8037    7499.3328    7512.1136   -1698.5731    178.25698 
    4380  15.745441689446753486    15.745442    15.745442    7644.1815    7552.3607    7620.6328     7759.551   -1698.0254    161.24756 
    4390  15.745441689446753486    15.745442    15.745442    7850.9942    7832.5471    7737.7624    7982.6731   -1697.3252    139.50212 
    4400  15.745441689446753486    15.745442    15.745442    7893.5351    7961.7572    7735.9314    7982.9166   -1696.9064    126.49712 
    4410  15.745441689446753486    15.745442    15.745442    7669.1216    7761.8783    7585.4538    7660.0328   -1697.0159    129.89739 
    4420  15.745441689446753486    15.745442    15.745442     7301.468    7334.4302    7385.3309     7184.643   -1697.5244    145.68779 
    4430  15.745441689446753486    15.745442    15.745442    7080.1257    7005.6686    7308.1953    6926.5132   -1698.0174    160.99674 
    4440  15.745441689446753486    15.745442    15.745442    7218.2467    7038.2688    7458.7113    7157.7599   -1698.0942     163.3812 
    4450  15.745441689446753486    15.745442    15.745442    7650.5619     7393.004    7774.9419    7783.7399   -1697.6814    150.56285 
    4460  15.745441689446753486    15.745442    15.745442    8062.8669    7753.6884    8066.6472     8368.265   -1697.1276    133.37055 
    4470  15.745441689446753486    15.745442    15.745442    8135.5796     7807.083    8134.6243    8465.0316   -1696.9318    127.28982 
    4480  15.745441689446753486    15.745442    15.745442    7795.8102    7518.1162    7891.4254    7977.8891   -1697.3009    138.75309 
    4490  15.745441689446753486    15.745442    15.745442    7272.8411    7134.4397    7448.0327     7236.051   -1697.9695    159.51797 
    4500  15.745441689446753486    15.745442    15.745442    6926.0356    6963.5682    7084.9669    6729.5717   -1698.4369    174.03283 
    4510  15.745441689446753486    15.745442    15.745442    6970.9824    7133.9346     7044.224    6734.7885   -1698.3737     172.0711 
    4520  15.745441689446753486    15.745442    15.745442    7324.3523    7514.7175     7316.565    7141.7742    -1697.862    156.18199 
    4530  15.745441689446753486    15.745442    15.745442    7700.9692    7826.3918    7670.1593    7606.3564   -1697.3098    139.03562 
    4540  15.745441689446753486    15.745442    15.745442    7846.7536    7832.2392    7865.6824    7842.3393   -1697.1169    133.04503 
    4550  15.745441689446753486    15.745442    15.745442    7711.4763    7492.9061    7845.4625    7796.0602   -1697.3539    140.40107 
    4560  15.745441689446753486    15.745442    15.745442    7454.8173    7009.6971    7746.6314    7608.1235   -1697.7343    152.21391 
    4570  15.745441689446753486    15.745442    15.745442    7295.0636    6704.7779    7729.4587    7450.9541   -1697.9043    157.49519 
    4580  15.745441689446753486    15.745442    15.745442    7333.1644    6784.6174    7803.7047    7411.1711   -1697.7574    152.93658 
    4590  15.745441689446753486    15.745442    15.745442    7491.0154    7170.5884    7839.0243    7463.4336   -1697.4881    144.57467 
    4600  15.745441689446753486    15.745442    15.745442    7601.7629    7565.6161    7726.9627    7512.7098   -1697.3813    141.25824 
    4610  15.745441689446753486    15.745442    15.745442    7567.2139     7719.141    7499.1877     7483.313   -1697.5577    146.73841 
    4620  15.745441689446753486    15.745442    15.745442     7438.214    7633.9974    7292.4734    7388.1711   -1697.8863    156.94395 
    4630  15.745441689446753486    15.745442    15.745442    7349.3331    7491.1577    7237.4056    7319.4359    -1698.111    163.92091 
    4640  15.745441689446753486    15.745442    15.745442    7384.0718    7413.6071    7376.4438    7362.1646    -1698.069    162.61817 
    4650  15.745441689446753486    15.745442    15.745442    7502.6552    7365.9965    7641.5248    7500.4442    -1697.815    154.73201 
    4660  15.745441689446753486    15.745442    15.745442    7589.0207    7269.5526    7883.0825     7614.427    -1697.554    146.62758 
    4670  15.745441689446753486    15.745442    15.745442    7576.1037    7159.2012    7967.9555    7601.1544   -1697.4523    143.46837 
    4680  15.745441689446753486    15.745442    15.745442    7518.0007    7176.9914    7890.1997     7486.811   -1697.4999     144.9439 
    4690  15.745441689446753486    15.745442    15.745442    7525.9905    7401.9353    7776.3888    7399.6473   -1697.5522    146.56773 
    4700  15.745441689446753486    15.745442    15.745442    7646.2955    7725.4153     7763.264    7450.2072   -1697.4975    144.86973 
    4710  15.745441689446753486    15.745442    15.745442    7805.2166    7929.6313    7861.9149    7624.1036   -1697.3691    140.88367 
    4720  15.745441689446753486    15.745442    15.745442    7868.8112    7872.4336    7961.7335    7772.2665   -1697.3046    138.88158 
    4730  15.745441689446753486    15.745442    15.745442     7750.213    7574.8461    7938.8715    7736.9215   -1697.4133    142.26134 
    4740  15.745441689446753486    15.745442    15.745442    7474.4753    7173.8293    7750.7873    7498.8094   -1697.6698    150.22672 
    4750  15.745441689446753486    15.745442    15.745442    7171.8116    6848.2606    7482.0488    7185.1253   -1697.9208    158.02188 
    4760  15.745441689446753486    15.745442    15.745442    7009.7306    6763.6393    7297.3338    6968.2186   -1698.0072    160.70873 
    4770  15.745441689446753486    15.745442    15.745442    7094.4768    6992.4995      7322.99     6967.941   -1697.8883    157.01561 
    4780  15.745441689446753486    15.745442    15.745442    7398.3907    7434.2032    7556.2281    7204.7407   -1697.6654    150.09488 
    4790  15.745441689446753486    15.745442    15.745442     7763.936     7831.546    7862.6173    7597.6448   -1697.5143    145.40444 
    4800  15.745441689446753486    15.745442    15.745442    7982.3636    7920.9625    8049.1486    7976.9797   -1697.5778     147.3785 
    4810  15.745441689446753486    15.745442    15.745442    7915.8206    7627.8487    7981.6595    8137.9537   -1697.8579    156.07677 
    4820  15.745441689446753486    15.745442    15.745442     7601.946    7142.7024    7700.9738    7962.1617    -1698.171    165.80047 
    4830  15.745441689446753486    15.745442    15.745442    7251.1982    6789.7571    7419.8847     7543.953   -1698.2405    167.95751 
    4840  15.745441689446753486    15.745442    15.745442    7106.2517    6787.5949    7352.7928    7178.3674   -1697.8988    157.34391 
    4850  15.745441689446753486    15.745442    15.745442    7254.9894    7102.1314     7521.998    7140.8388   -1697.2562    137.38535 
    4860  15.745441689446753486    15.745442    15.745442    7561.9298     7497.842    7751.0565    7436.8909    -1696.683    119.58679 
    4870  15.745441689446753486    15.745442    15.745442    7784.5011     7724.194    7839.6873     7789.622   -1696.5793    116.36678 
    4880  15.745441689446753486    15.745442    15.745442    7769.6112    7692.5565    7720.6625    7895.6145   -1697.0815     131.9652 
    4890  15.745441689446753486    15.745442    15.745442    7560.0435     7505.516    7490.6047    7684.0098   -1697.9355    158.48996 
    4900  15.745441689446753486    15.745442    15.745442    7327.2206    7325.0297    7325.1655    7331.4667    -1698.653    180.77418 
    4910  15.745441689446753486    15.745442    15.745442    7216.3704    7229.3812     7342.375    7077.3549   -1698.8358    186.45323 
    4920  15.745441689446753486    15.745442    15.745442    7259.1155    7194.6205    7529.0689     7053.657   -1698.4174    173.46288 
    4930  15.745441689446753486    15.745442    15.745442    7394.9674    7177.0085    7773.0916    7234.8022   -1697.6645    150.07692 
    4940  15.745441689446753486    15.745442    15.745442    7533.1133    7172.5011    7946.0504    7480.7886   -1696.9792    128.79199 
    4950  15.745441689446753486    15.745442    15.745442    7602.2356    7192.2873    7977.4036    7637.0159   -1696.6695    119.17415 
    4960  15.745441689446753486    15.745442    15.745442    7584.5422    7233.4526    7880.4325    7639.7415   -1696.8137    123.65098 
    4970  15.745441689446753486    15.745442    15.745442    7527.2997    7308.7334    7720.9711    7552.1946   -1697.2569    137.41714 
    4980  15.745441689446753486    15.745442    15.745442    7508.9157    7461.0841    7572.3515    7493.3115    -1697.734    152.23459 
    4990  15.745441689446753486    15.745442    15.745442    7560.2779    7688.2758    7482.3425    7510.2153   -1698.0463    161.93765 
    5000  15.745441689446753486    15.745442    15.745442    7615.1995    7870.8451    7443.0318    7531.7217   -1698.1648    165.62382 
    5010  15.745441689446753486    15.745442    15.745442    7569.5424    7844.4589    7402.5293    7461.6389   -1698.1813    166.13811 
    5020  15.745441689446753486    15.745442    15.745442    7404.5352    7573.2293    7335.9679    7304.4086   -1698.1644    165.61369 
    5030  15.745441689446753486    15.745442    15.745442    7240.1064    7235.3459    7292.1561    7192.8172   -1698.0711    162.71362 
    5040  15.745441689446753486    15.745442    15.745442    7243.7716    7093.1767    7355.3061    7282.8321   -1697.8116    154.65196 
    5050  15.745441689446753486    15.745442    15.745442    7464.8916    7248.0945    7551.7206    7594.8597   -1697.4016    141.91686 
    5060  15.745441689446753486    15.745442    15.745442    7755.4529    7547.0052    7781.3424    7938.0112   -1697.0303    130.38691 
    5070  15.745441689446753486    15.745442    15.745442     7890.983    7749.5691    7888.5094    8034.8705   -1696.9432     127.6841 
    5080  15.745441689446753486    15.745442    15.745442     7775.631    7744.7962    7812.8076    7769.2891   -1697.2264    136.47972 
    5090  15.745441689446753486    15.745442    15.745442     7519.888    7604.9114    7633.5568    7321.1957   -1697.6996    151.17571 
    5100  15.745441689446753486    15.745442    15.745442    7338.1542    7482.2259    7489.0727    7043.1639   -1698.0354    161.60678 
    5110  15.745441689446753486    15.745442    15.745442    7364.6688     7466.888    7469.8218    7157.2966   -1698.0168    161.03062 
    5120  15.745441689446753486    15.745442    15.745442    7547.5512    7523.5806    7560.0981    7558.9749   -1697.7141    151.63237 
    5130  15.745441689446753486    15.745442    15.745442     7706.647    7530.6244     7668.656    7920.6605   -1697.4273     142.7276 
    5140  15.745441689446753486    15.745442    15.745442    7687.1846    7394.2576    7705.3563    7961.9398   -1697.4351    142.97169 
    5150  15.745441689446753486    15.745442    15.745442     7489.647    7166.6886    7642.7809    7659.4716   -1697.7567    152.95728 
    5160  15.745441689446753486    15.745442    15.745442    7275.2712    7033.0408    7536.4051    7256.3677   -1698.1317    164.60369 
    5170  15.745441689446753486    15.745442    15.745442    7226.5361    7150.1373    7487.7967    7041.6742   -1698.2462    168.15932 
    5180  15.745441689446753486    15.745442    15.745442     7391.543    7482.2282    7574.9586    7117.4421   -1697.9983    160.46282 
    5190  15.745441689446753486    15.745442    15.745442    7652.6869    7795.4315    7783.1147    7379.5145   -1697.5624    146.92729 
    5200  15.745441689446753486    15.745442    15.745442    7823.1108    7838.4972    7987.5512     7643.284   -1697.2185    136.24606 
    5210  15.745441689446753486    15.745442    15.745442     7791.235    7552.4915    8046.0366    7775.1768   -1697.1296    133.48137 
    5220  15.745441689446753486    15.745442    15.745442    7600.4101    7108.5379    7929.2671    7763.4255   -1697.2477     137.1496 
    5230  15.745441689446753486    15.745442    15.745442    7401.4535    6776.9481    7742.4443    7684.9681   -1697.3923    141.63895 
    5240  15.745441689446753486    15.745442    15.745442    7336.1832    6758.5639    7633.9593    7616.0264   -1697.4317    142.86584 
    5250  15.745441689446753486    15.745442    15.745442    7426.4202    7050.4902     7660.597    7568.1733   -1697.4227    142.59055 
    5260  15.745441689446753486    15.745442    15.745442    7548.8684    7425.2125    7731.8924    7489.5003   -1697.5553    146.71297 
    5270  15.745441689446753486    15.745442    15.745442    7556.2758    7602.6353    7713.1734    7353.0186   -1697.9257    158.22073 
    5280  15.745441689446753486    15.745442    15.745442    7437.3471    7499.2169    7580.9664    7231.8581   -1698.3678    171.94985 
    5290  15.745441689446753486    15.745442    15.745442    7331.8003    7293.8758    7452.8194    7248.7057   -1698.5424    177.36985 
    5300  15.745441689446753486    15.745442    15.745442    7377.2657    7230.6533    7458.5207    7442.6232   -1698.2318    167.72328 
    5310  15.745441689446753486    15.745442    15.745442    7551.5855    7369.5278    7590.9337    7694.2949   -1697.5705    147.18542 
    5320  15.745441689446753486    15.745442    15.745442    7688.4384    7546.4101    7713.1237    7805.7813   -1696.9774    128.76652 
    5330  15.745441689446753486    15.745442    15.745442    7649.6349    7566.1167    7705.3732    7677.4148   -1696.8357     124.3663 
    5340  15.745441689446753486    15.745442    15.745442    7468.2292    7404.8945    7582.6099    7417.1832   -1697.2057    135.85824 
    5350  15.745441689446753486    15.745442    15.745442    7318.9409    7222.3565    7476.0144    7258.4517   -1697.8044    154.45023 
    5360  15.745441689446753486    15.745442    15.745442    7353.3638     7206.643    7487.6745    7365.7741   -1698.2363    167.86569 
[...]
    8640  15.745441689446753486    15.745442    15.745442    7275.9927    7136.6294    7325.0961    7366.2526   -1698.2235    167.81713 
    8650  15.745441689446753486    15.745442    15.745442    7110.0136    6829.9541    7195.0102    7305.0766   -1698.6808    182.02076 
    8660  15.745441689446753486    15.745442    15.745442    7207.8572    6893.6839    7320.1072    7409.7804   -1698.5891    179.17389 
    8670  15.745441689446753486    15.745442    15.745442    7488.2698    7272.4659    7582.1326     7610.211   -1698.0176    161.42748 
    8680  15.745441689446753486    15.745442    15.745442    7744.8694    7734.3346    7773.0043    7727.2693   -1697.3421    140.45031 
    8690  15.745441689446753486    15.745442    15.745442     7832.966     8031.565    7796.2036    7671.1295   -1696.9532    128.37151 
    8700  15.745441689446753486    15.745442    15.745442    7747.7571    8018.1331    7719.2177    7505.9206   -1697.0059    130.00536 
    8710  15.745441689446753486    15.745442    15.745442    7567.8603    7694.7689    7644.4864    7364.3256   -1697.3682    141.26005 
    8720  15.745441689446753486    15.745442    15.745442    7389.3559     7224.227    7593.8146    7350.0259   -1697.7605    153.44514 
    8730  15.745441689446753486    15.745442    15.745442    7306.3555     6884.255    7546.6285     7488.183   -1697.9585    159.59726 
    8740  15.745441689446753486    15.745442    15.745442    7366.2039    6884.5271    7515.8673    7698.2172   -1697.9181    158.34594 
    8750  15.745441689446753486    15.745442    15.745442    7508.4911    7181.9834    7525.1462    7818.3435   -1697.7605    153.45462 
    8760  15.745441689446753486    15.745442    15.745442    7602.1844    7528.7392    7556.9297    7720.8842   -1697.6513    150.06337 
    8770  15.745441689446753486    15.745442    15.745442    7568.2091    7702.8199    7562.8642    7438.9433   -1697.6621    150.39965 
    8780  15.745441689446753486    15.745442    15.745442      7460.58    7671.6927     7534.293    7175.7542   -1697.7212    152.23291 
    8790  15.745441689446753486    15.745442    15.745442    7414.7376    7556.2839     7538.279    7149.6498   -1697.6954    151.43156 
    8800  15.745441689446753486    15.745442    15.745442    7496.8965    7454.5396    7635.3991    7400.7509   -1697.5309    146.32442 
    8810  15.745441689446753486    15.745442    15.745442    7627.4992    7353.0128    7779.2019    7750.2829    -1697.318    139.71563 
    8820  15.745441689446753486    15.745442    15.745442     7675.451    7219.7801    7859.9318    7946.6411   -1697.2153      136.526 
    8830  15.745441689446753486    15.745442    15.745442    7600.8166    7097.1459    7834.8178    7870.4862   -1697.3059    139.33976 
    8840  15.745441689446753486    15.745442    15.745442    7492.7881    7077.7593    7765.6239    7634.9809   -1697.5313    146.34405 
    8850  15.745441689446753486    15.745442    15.745442    7469.5355    7209.7077    7728.7759    7470.1228   -1697.7626    153.52889 
    8860  15.745441689446753486    15.745442    15.745442    7548.6365    7435.4126    7717.7192    7492.7777   -1697.9184    158.37129 
    8870  15.745441689446753486    15.745442    15.745442    7636.8287    7627.8759    7666.3553    7616.2548   -1698.0037     161.0233 
    8880  15.745441689446753486    15.745442    15.745442    7645.4897    7685.8114    7572.0369    7678.6209   -1698.0439     162.2741 
    8890  15.745441689446753486    15.745442    15.745442    7578.4571    7598.4065    7522.4325    7614.5322    -1698.021    161.56381 
    8900  15.745441689446753486    15.745442    15.745442     7499.911    7442.4041    7570.0396    7487.2894   -1697.9058    157.98599 
    8910  15.745441689446753486    15.745442    15.745442     7451.567    7323.4603    7644.7189    7386.5216   -1697.7249    152.36767 
    8920  15.745441689446753486    15.745442    15.745442    7423.9109     7299.426    7635.3066    7337.0002   -1697.5542    147.06565 
    8930  15.745441689446753486    15.745442    15.745442    7395.4513    7355.1765     7518.425    7312.7524   -1697.4557    144.00932 
    8940  15.745441689446753486    15.745442    15.745442    7377.6985    7435.7674    7385.9982    7311.3299   -1697.4323    143.28183 
    8950  15.745441689446753486    15.745442    15.745442    7414.6917    7500.7047    7375.3865     7367.984   -1697.4293    143.18928 
    8960  15.745441689446753486    15.745442    15.745442    7532.5402    7551.5226    7551.0384    7495.0596   -1697.3895    141.95208 
    8970  15.745441689446753486    15.745442    15.745442     7696.523    7612.8947    7831.6278    7645.0466   -1697.3233    139.89861 
    8980  15.745441689446753486    15.745442    15.745442    7821.9753    7684.4985    8053.9905    7727.4371   -1697.3188    139.76265 
    8990  15.745441689446753486    15.745442    15.745442    7813.3511    7706.1402    8085.9047    7648.0082   -1697.4675    144.38446 
    9000  15.745441689446753486    15.745442    15.745442    7617.9254    7600.7587    7873.9934    7379.0242   -1697.7743    153.91443 
    9010  15.745441689446753486    15.745442    15.745442    7294.1401    7370.6704    7479.1304    7032.6197   -1698.1253    164.81706 
    9020  15.745441689446753486    15.745442    15.745442    7020.6796    7136.7303      7097.73    6827.5786   -1698.3348    171.32398 
    9030  15.745441689446753486    15.745442    15.745442    6992.1117    7071.6539    6972.9767    6931.7045   -1698.2486     168.6493 
    9040  15.745441689446753486    15.745442    15.745442    7264.5258    7249.4941     7225.378    7318.7052   -1697.8548    156.41817 
    9050  15.745441689446753486    15.745442    15.745442    7689.3226    7558.3825    7732.4759    7777.1092   -1697.3293    140.09866 
    9060  15.745441689446753486    15.745442    15.745442    8010.3461    7786.7374    8182.2498    8062.0511   -1696.9581    128.57105 
    9070  15.745441689446753486    15.745442    15.745442    8041.1769      7781.97    8292.5862    8048.9743   -1696.9589    128.59824 
    9080  15.745441689446753486    15.745442    15.745442    7776.5768    7541.1122    8008.8723    7779.7459   -1697.3339    140.24462 
    9090  15.745441689446753486    15.745442    15.745442    7381.8329    7193.8864    7536.9985    7414.6139   -1697.8649    156.73896 
    9100  15.745441689446753486    15.745442    15.745442    7088.7915    6919.8481    7196.3572    7150.1691    -1698.242    168.45273 
    9110  15.745441689446753486    15.745442    15.745442    7058.0436    6864.1295    7176.2894     7133.712   -1698.2416    168.44129 
    9120  15.745441689446753486    15.745442    15.745442     7291.814    7073.7159    7418.9127    7382.8132   -1697.8631     156.6854 
    9130  15.745441689446753486    15.745442    15.745442    7642.0241    7450.9723    7725.8897    7749.2104   -1697.3393    140.42022 
    9140  15.745441689446753486    15.745442    15.745442    7899.9465    7772.2835    7925.3099    8002.2462   -1696.9969    129.78913 
    9150  15.745441689446753486    15.745442    15.745442     7914.729    7817.0356    7942.6317    7984.5196   -1697.0529    131.52896 
    9160  15.745441689446753486    15.745442    15.745442    7685.1249    7548.0685    7795.2412     7712.065   -1697.4872     145.0181 
    9170  15.745441689446753486    15.745442    15.745442    7370.6674    7175.6318    7571.8813    7364.4892   -1698.0635    162.91794 
    9180  15.745441689446753486    15.745442    15.745442    7188.0693    6998.4754    7395.5085     7170.224   -1698.4633    175.33829 
    9190  15.745441689446753486    15.745442    15.745442    7263.0934    7158.0517    7375.7268    7255.5018   -1698.4545    175.06655 
    9200  15.745441689446753486    15.745442    15.745442    7544.4441    7529.4363    7546.0293    7557.8668   -1698.0213    161.61095 
    9210  15.745441689446753486    15.745442    15.745442    7833.9525    7821.2242    7811.8994    7868.7339   -1697.3903    142.01549 
    9220  15.745441689446753486    15.745442    15.745442    7923.5778    7799.6132    7995.7208    7975.3995   -1696.9144    127.23772 
    9230  15.745441689446753486    15.745442    15.745442     7748.129    7469.9104    7969.5081    7804.9684   -1696.8517    125.28937 
    9240  15.745441689446753486    15.745442    15.745442    7434.6958    7076.8399    7758.7564     7468.491   -1697.1873    135.71244 
    9250  15.745441689446753486    15.745442    15.745442    7203.9241    6924.1368    7526.5531    7161.0823   -1697.6636    150.50529 
    9260  15.745441689446753486    15.745442    15.745442    7204.0103    7144.4921    7442.0426    7025.4961   -1697.9962    160.83866 
    9270  15.745441689446753486    15.745442    15.745442    7409.2775    7585.2357    7539.9895    7102.6071   -1698.0638    162.94088 
    9280  15.745441689446753486    15.745442    15.745442    7652.9953    7916.8611    7695.8187    7346.3061   -1697.9276    158.71555 
    9290  15.745441689446753486    15.745442    15.745442    7753.9401     7891.673    7735.1829    7634.9644   -1697.7367     152.7864 
    9300  15.745441689446753486    15.745442    15.745442    7644.4027    7530.2575    7594.6683    7808.2824   -1697.6184    149.11251 
    9310  15.745441689446753486    15.745442    15.745442    7411.3902    7083.7133    7380.9801    7769.4772   -1697.6032    148.64313 
    9320  15.745441689446753486    15.745442    15.745442    7227.5701    6833.0489    7277.2443    7572.4172   -1697.6163    149.04752 
    9330  15.745441689446753486    15.745442    15.745442    7225.8033    6907.0092    7393.3652    7377.0354   -1697.5519    147.04805 
    9340  15.745441689446753486    15.745442    15.745442    7400.4181    7230.1015    7662.7159    7308.4369   -1697.3926     142.1009 
    9350  15.745441689446753486    15.745442    15.745442    7617.9274    7588.0509    7889.1443    7376.5869   -1697.2643    138.12149 
    9360  15.745441689446753486    15.745442    15.745442     7726.722    7750.4212    7919.6572    7510.0876   -1697.3399     140.4715 
    9370  15.745441689446753486    15.745442    15.745442     7666.154    7612.5865    7755.7929    7630.0827   -1697.6549    150.25785 
    9380  15.745441689446753486    15.745442    15.745442    7498.0499    7280.4447    7525.1387    7688.5664   -1698.0398    162.21104 
    9390  15.745441689446753486    15.745442    15.745442    7340.2663    6991.6778    7368.4982    7660.6229   -1698.2559    168.92492 
    9400  15.745441689446753486    15.745442    15.745442    7267.9062    6922.4195    7339.7026    7541.5965   -1698.1889    166.84651 
    9410  15.745441689446753486    15.745442    15.745442    7272.4114    7063.2676    7390.2566      7363.71   -1697.9185    158.45245 
    9420  15.745441689446753486    15.745442    15.745442    7303.0757    7281.8998    7429.7832     7197.544   -1697.6335    149.60078 
    9430  15.745441689446753486    15.745442    15.745442    7338.1696    7467.1619    7415.4059    7131.9409   -1697.4746    144.66515 
    9440  15.745441689446753486    15.745442    15.745442    7409.1496    7591.9605      7404.49    7230.9985   -1697.4385    143.54227 
    9450  15.745441689446753486    15.745442    15.745442    7553.0122    7673.2865    7501.1879    7484.5622   -1697.4282    143.22199 
    9460  15.745441689446753486    15.745442    15.745442    7742.3504    7704.0711    7733.8381    7789.1421   -1697.3858    141.90815 
    9470  15.745441689446753486    15.745442    15.745442    7873.2161    7649.1013     7990.519    7980.0279   -1697.3522    140.86766 
    9480  15.745441689446753486    15.745442    15.745442    7839.8047    7502.4786    8090.3322    7926.6032   -1697.4034    142.46052 
    9490  15.745441689446753486    15.745442    15.745442    7635.0673    7323.0924    7942.7753    7639.3341   -1697.5558    147.19382 
    9500  15.745441689446753486    15.745442    15.745442    7373.1737    7196.3485    7639.0332    7284.1395   -1697.7385    152.87089 
    9510  15.745441689446753486    15.745442    15.745442    7204.5918    7167.2088    7375.2865    7071.2802   -1697.8537    156.44887 
    9520  15.745441689446753486    15.745442    15.745442     7210.143    7229.1303    7295.3599    7105.9388    -1697.857    156.55364 
    9530  15.745441689446753486    15.745442    15.745442    7365.4771    7362.0053    7405.0787    7329.3474   -1697.7758     154.0329 
    9540  15.745441689446753486    15.745442    15.745442    7583.8021     7547.667      7611.68    7592.0591   -1697.6676    150.67567 
    9550  15.745441689446753486    15.745442    15.745442    7773.1117    7740.4192    7814.9187    7763.9972   -1697.5849    148.10651 
    9560  15.745441689446753486    15.745442    15.745442    7853.7714    7837.1643    7944.6537    7779.4964   -1697.5611    147.36943 
    9570  15.745441689446753486    15.745442    15.745442    7766.9284    7727.6467     7941.905    7631.2334   -1697.6051    148.73785 
    9580  15.745441689446753486    15.745442    15.745442    7519.8339    7415.0878     7766.812    7377.6019   -1697.6986    151.64296 
    9590  15.745441689446753486    15.745442    15.745442    7220.5806    7059.5741     7450.513    7151.6549   -1697.7932    154.58344 
    9600  15.745441689446753486    15.745442    15.745442    7037.5539     6871.691    7132.7012    7108.2694   -1697.8174    155.33525 
    9610  15.745441689446753486    15.745442    15.745442    7094.2677    6963.4707    7009.5178    7309.8145   -1697.7193    152.28758 
    9620  15.745441689446753486    15.745442    15.745442    7373.7072    7284.2906    7184.7057    7652.1252   -1697.5279    146.34721 
    9630  15.745441689446753486    15.745442    15.745442    7719.2734    7666.5534    7569.3596    7921.9071   -1697.3567    141.02957 
    9640  15.745441689446753486    15.745442    15.745442    7933.1247    7925.5073    7927.5464    7946.3206   -1697.3245     140.0339 
    9650  15.745441689446753486    15.745442    15.745442    7894.0621    7947.5931    8031.9141     7702.679   -1697.4762    144.74475 
    9660  15.745441689446753486    15.745442    15.745442    7626.6763    7734.9296    7829.5598    7315.5395   -1697.7607    153.58571 
    9670  15.745441689446753486    15.745442    15.745442    7283.7222    7398.8171    7473.9304    6978.4191   -1698.0546    162.71497 
    9680  15.745441689446753486    15.745442    15.745442    7054.1161    7104.7674     7199.136    6858.4447    -1698.204    167.35534 
    9690  15.745441689446753486    15.745442    15.745442    7054.2086    6985.8978    7161.9778    7014.7502   -1698.0975    164.04931 
    9700  15.745441689446753486    15.745442    15.745442     7267.939    7069.3543    7364.8373    7369.6256   -1697.7529    153.34523 
    9710  15.745441689446753486    15.745442    15.745442     7570.554    7265.3896    7693.3906    7752.8819   -1697.3414    140.56836 
    9720  15.745441689446753486    15.745442    15.745442    7803.7338    7420.8849    8005.2499    7985.0666   -1697.0913    132.79966 
    9730  15.745441689446753486    15.745442    15.745442    7861.3389    7431.3679    8175.9837    7976.6651   -1697.1225    133.77061 
    9740  15.745441689446753486    15.745442    15.745442    7738.3727    7326.3291    8114.9176    7773.8715   -1697.3653    141.31115 
    9750  15.745441689446753486    15.745442    15.745442    7516.5464    7214.1643    7827.9649    7507.5099   -1697.6403     149.8551 
    9760  15.745441689446753486    15.745442    15.745442    7310.0107    7164.5236    7467.6905    7297.8178   -1697.8128    155.21446 
    9770  15.745441689446753486    15.745442    15.745442    7204.4628     7170.035    7240.6728    7202.6806   -1697.8661    156.87421 
    9780  15.745441689446753486    15.745442    15.745442    7227.9404    7202.0744     7248.144    7233.6029   -1697.8525    156.45429 
    9790  15.745441689446753486    15.745442    15.745442    7356.9419    7268.5561    7429.9311    7372.3386   -1697.8084    155.08366 
    9800  15.745441689446753486    15.745442    15.745442    7531.3843    7390.5799    7640.2863    7563.2867   -1697.7336    152.76338 
    9810  15.745441689446753486    15.745442    15.745442    7676.6693    7537.4582    7764.1678     7728.382   -1697.6354    149.71279 
    9820  15.745441689446753486    15.745442    15.745442    7735.9922      7626.34    7774.7664    7806.8702   -1697.5567    147.27275 
    9830  15.745441689446753486    15.745442    15.745442    7697.2226    7604.4068    7718.6859    7768.5752   -1697.5517    147.11672 
    9840  15.745441689446753486    15.745442    15.745442    7594.6076    7509.3198    7671.1704    7603.3328   -1697.6367    149.75791 
    9850  15.745441689446753486    15.745442    15.745442    7484.8077    7427.7545    7684.8256    7341.8431   -1697.7607    153.60956 
    9860  15.745441689446753486    15.745442    15.745442    7422.3879    7404.4354    7753.9814    7108.7468   -1697.8193      155.431 
    9870  15.745441689446753486    15.745442    15.745442    7440.3531    7410.9142    7825.3983    7084.7467   -1697.7251    152.50651 
    9880  15.745441689446753486    15.745442    15.745442    7524.3406    7399.8711    7839.4793    7333.6714   -1697.4982    145.46072 
    9890  15.745441689446753486    15.745442    15.745442    7603.3918    7358.5686    7759.9865    7691.6203   -1697.2964    139.19632 
    9900  15.745441689446753486    15.745442    15.745442    7583.0679    7300.9772    7577.8508    7870.3756   -1697.3187    139.89296 
    9910  15.745441689446753486    15.745442    15.745442    7425.8519    7242.7577    7340.4521    7694.3458   -1697.6221    149.31736 
    9920  15.745441689446753486    15.745442    15.745442    7225.4876    7204.8208     7192.682    7278.9601    -1698.022    161.73675 
    9930  15.745441689446753486    15.745442    15.745442    7163.3278     7228.533    7299.2135    6962.2371   -1698.2133    167.68001 
    9940  15.745441689446753486    15.745442    15.745442    7342.3155    7358.4872    7661.3795    7007.0798   -1698.0297    161.97759 
    9950  15.745441689446753486    15.745442    15.745442    7664.1234    7578.1789    8043.0514    7371.1398   -1697.5997    148.62638 
    9960  15.745441689446753486    15.745442    15.745442    7887.7472    7762.7026    8138.4992    7762.0398   -1697.2495    137.75429 
    9970  15.745441689446753486    15.745442    15.745442    7827.2008    7745.4208    7850.7093    7885.4724   -1697.2334    137.25533 
    9980  15.745441689446753486    15.745442    15.745442    7518.4762    7491.0087    7400.4479    7663.9718   -1697.5251    146.31332 
    9990  15.745441689446753486    15.745442    15.745442    7199.4423    7185.1415    7138.5903    7274.5953   -1697.8488    156.36513 
    9999  15.745441689446753486    15.745442    15.745442    7101.7159    7076.6828    7217.2887    7011.1761   -1697.9288    158.85107 
Loop time of 1.90111 on 4 procs for 9999 steps with 250 atoms

Performance: 454.426 ns/day, 0.053 hours/ns, 5259.563 timesteps/s
96.2% CPU use with 4 MPI tasks x no OpenMP threads

MPI task timing breakdown:
Section |  min time  |  avg time  |  max time  |%varavg| %total
---------------------------------------------------------------
Pair    | 1.117      | 1.2775     | 1.4544     |  10.6 | 67.20
Neigh   | 0          | 0          | 0          |   0.0 |  0.00
Comm    | 0.35191    | 0.5125     | 0.65825    |  15.5 | 26.96
Output  | 0.037884   | 0.039402   | 0.043483   |   1.2 |  2.07
Modify  | 0.027213   | 0.041498   | 0.056339   |   6.8 |  2.18
Other   |            | 0.03024    |            |       |  1.59

Nlocal:    62.5 ave 90 max 40 min
Histogram: 1 0 0 0 2 0 0 0 0 1
Nghost:    1281.5 ave 1304 max 1254 min
Histogram: 1 0 0 0 0 0 2 0 0 1
Neighs:    4250 ave 5801 max 2933 min
Histogram: 1 0 0 1 1 0 0 0 0 1

Total # of neighbors = 17000
Ave neighs/atom = 68
Neighbor list builds = 0
Dangerous builds = 0

#-------------------------------------------------
Total wall time: 0:00:01
