ITEM: TIMESTEP
0
ITEM: NUMBER OF ATOMS
250
ITEM: BOX BOUNDS pp pp pp
2.1246542862245481e+00 1.7875345713775143e+01
2.1246542862245481e+00 1.7875345713775143e+01
2.1246542862245481e+00 1.7875345713775143e+01
ITEM: ATOMS id type x y z 
1 1 2.12465 2.12465 2.12465 
2 1 3.69972 3.69972 3.69972 
3 1 5.27479 2.12465 2.12465 
11 1 2.12465 5.27479 2.12465 
13 1 5.27479 5.27479 2.12465 
51 1 2.12465 2.12465 5.27479 
53 1 5.27479 2.12465 5.27479 
61 1 2.12465 5.27479 5.27479 
63 1 5.27479 5.27479 5.27479 
4 1 6.84986 3.69972 3.69972 
12 1 3.69972 6.84986 3.69972 
14 1 6.84986 6.84986 3.69972 
52 1 3.69972 3.69972 6.84986 
54 1 6.84986 3.69972 6.84986 
62 1 3.69972 6.84986 6.84986 
64 1 6.84986 6.84986 6.84986 
5 1 8.42493 2.12465 2.12465 
15 1 8.42493 5.27479 2.12465 
55 1 8.42493 2.12465 5.27479 
65 1 8.42493 5.27479 5.27479 
6 1 10 3.69972 3.69972 
7 1 11.5751 2.12465 2.12465 
17 1 11.5751 5.27479 2.12465 
57 1 11.5751 2.12465 5.27479 
67 1 11.5751 5.27479 5.27479 
16 1 10 6.84986 3.69972 
56 1 10 3.69972 6.84986 
66 1 10 6.84986 6.84986 
8 1 13.1501 3.69972 3.69972 
9 1 14.7252 2.12465 2.12465 
10 1 16.3003 3.69972 3.69972 
19 1 14.7252 5.27479 2.12465 
59 1 14.7252 2.12465 5.27479 
69 1 14.7252 5.27479 5.27479 
18 1 13.1501 6.84986 3.69972 
20 1 16.3003 6.84986 3.69972 
58 1 13.1501 3.69972 6.84986 
60 1 16.3003 3.69972 6.84986 
68 1 13.1501 6.84986 6.84986 
70 1 16.3003 6.84986 6.84986 
21 1 2.12465 8.42493 2.12465 
23 1 5.27479 8.42493 2.12465 
71 1 2.12465 8.42493 5.27479 
73 1 5.27479 8.42493 5.27479 
22 1 3.69972 10 3.69972 
31 1 2.12465 11.5751 2.12465 
33 1 5.27479 11.5751 2.12465 
81 1 2.12465 11.5751 5.27479 
83 1 5.27479 11.5751 5.27479 
24 1 6.84986 10 3.69972 
72 1 3.69972 10 6.84986 
74 1 6.84986 10 6.84986 
25 1 8.42493 8.42493 2.12465 
75 1 8.42493 8.42493 5.27479 
27 1 11.5751 8.42493 2.12465 
77 1 11.5751 8.42493 5.27479 
35 1 8.42493 11.5751 2.12465 
85 1 8.42493 11.5751 5.27479 
26 1 10 10 3.69972 
37 1 11.5751 11.5751 2.12465 
87 1 11.5751 11.5751 5.27479 
76 1 10 10 6.84986 
29 1 14.7252 8.42493 2.12465 
79 1 14.7252 8.42493 5.27479 
28 1 13.1501 10 3.69972 
30 1 16.3003 10 3.69972 
39 1 14.7252 11.5751 2.12465 
89 1 14.7252 11.5751 5.27479 
78 1 13.1501 10 6.84986 
80 1 16.3003 10 6.84986 
32 1 3.69972 13.1501 3.69972 
34 1 6.84986 13.1501 3.69972 
41 1 2.12465 14.7252 2.12465 
42 1 3.69972 16.3003 3.69972 
43 1 5.27479 14.7252 2.12465 
91 1 2.12465 14.7252 5.27479 
93 1 5.27479 14.7252 5.27479 
44 1 6.84986 16.3003 3.69972 
82 1 3.69972 13.1501 6.84986 
84 1 6.84986 13.1501 6.84986 
92 1 3.69972 16.3003 6.84986 
94 1 6.84986 16.3003 6.84986 
36 1 10 13.1501 3.69972 
45 1 8.42493 14.7252 2.12465 
95 1 8.42493 14.7252 5.27479 
46 1 10 16.3003 3.69972 
47 1 11.5751 14.7252 2.12465 
97 1 11.5751 14.7252 5.27479 
86 1 10 13.1501 6.84986 
96 1 10 16.3003 6.84986 
38 1 13.1501 13.1501 3.69972 
40 1 16.3003 13.1501 3.69972 
48 1 13.1501 16.3003 3.69972 
49 1 14.7252 14.7252 2.12465 
50 1 16.3003 16.3003 3.69972 
99 1 14.7252 14.7252 5.27479 
88 1 13.1501 13.1501 6.84986 
90 1 16.3003 13.1501 6.84986 
98 1 13.1501 16.3003 6.84986 
100 1 16.3003 16.3003 6.84986 
101 1 2.12465 2.12465 8.42493 
103 1 5.27479 2.12465 8.42493 
111 1 2.12465 5.27479 8.42493 
113 1 5.27479 5.27479 8.42493 
102 1 3.69972 3.69972 10 
151 1 2.12465 2.12465 11.5751 
153 1 5.27479 2.12465 11.5751 
161 1 2.12465 5.27479 11.5751 
163 1 5.27479 5.27479 11.5751 
104 1 6.84986 3.69972 10 
112 1 3.69972 6.84986 10 
114 1 6.84986 6.84986 10 
105 1 8.42493 2.12465 8.42493 
115 1 8.42493 5.27479 8.42493 
107 1 11.5751 2.12465 8.42493 
117 1 11.5751 5.27479 8.42493 
155 1 8.42493 2.12465 11.5751 
165 1 8.42493 5.27479 11.5751 
106 1 10 3.69972 10 
157 1 11.5751 2.12465 11.5751 
167 1 11.5751 5.27479 11.5751 
116 1 10 6.84986 10 
109 1 14.7252 2.12465 8.42493 
119 1 14.7252 5.27479 8.42493 
108 1 13.1501 3.69972 10 
110 1 16.3003 3.69972 10 
159 1 14.7252 2.12465 11.5751 
169 1 14.7252 5.27479 11.5751 
118 1 13.1501 6.84986 10 
120 1 16.3003 6.84986 10 
121 1 2.12465 8.42493 8.42493 
123 1 5.27479 8.42493 8.42493 
131 1 2.12465 11.5751 8.42493 
133 1 5.27479 11.5751 8.42493 
171 1 2.12465 8.42493 11.5751 
173 1 5.27479 8.42493 11.5751 
122 1 3.69972 10 10 
181 1 2.12465 11.5751 11.5751 
183 1 5.27479 11.5751 11.5751 
124 1 6.84986 10 10 
125 1 8.42493 8.42493 8.42493 
127 1 11.5751 8.42493 8.42493 
135 1 8.42493 11.5751 8.42493 
137 1 11.5751 11.5751 8.42493 
175 1 8.42493 8.42493 11.5751 
177 1 11.5751 8.42493 11.5751 
185 1 8.42493 11.5751 11.5751 
126 1 10 10 10 
187 1 11.5751 11.5751 11.5751 
129 1 14.7252 8.42493 8.42493 
139 1 14.7252 11.5751 8.42493 
179 1 14.7252 8.42493 11.5751 
128 1 13.1501 10 10 
130 1 16.3003 10 10 
189 1 14.7252 11.5751 11.5751 
141 1 2.12465 14.7252 8.42493 
143 1 5.27479 14.7252 8.42493 
132 1 3.69972 13.1501 10 
134 1 6.84986 13.1501 10 
142 1 3.69972 16.3003 10 
191 1 2.12465 14.7252 11.5751 
193 1 5.27479 14.7252 11.5751 
144 1 6.84986 16.3003 10 
145 1 8.42493 14.7252 8.42493 
147 1 11.5751 14.7252 8.42493 
136 1 10 13.1501 10 
195 1 8.42493 14.7252 11.5751 
146 1 10 16.3003 10 
197 1 11.5751 14.7252 11.5751 
149 1 14.7252 14.7252 8.42493 
138 1 13.1501 13.1501 10 
140 1 16.3003 13.1501 10 
148 1 13.1501 16.3003 10 
150 1 16.3003 16.3003 10 
199 1 14.7252 14.7252 11.5751 
152 1 3.69972 3.69972 13.1501 
154 1 6.84986 3.69972 13.1501 
162 1 3.69972 6.84986 13.1501 
164 1 6.84986 6.84986 13.1501 
201 1 2.12465 2.12465 14.7252 
202 1 3.69972 3.69972 16.3003 
203 1 5.27479 2.12465 14.7252 
211 1 2.12465 5.27479 14.7252 
213 1 5.27479 5.27479 14.7252 
204 1 6.84986 3.69972 16.3003 
212 1 3.69972 6.84986 16.3003 
214 1 6.84986 6.84986 16.3003 
156 1 10 3.69972 13.1501 
166 1 10 6.84986 13.1501 
205 1 8.42493 2.12465 14.7252 
215 1 8.42493 5.27479 14.7252 
206 1 10 3.69972 16.3003 
207 1 11.5751 2.12465 14.7252 
217 1 11.5751 5.27479 14.7252 
216 1 10 6.84986 16.3003 
158 1 13.1501 3.69972 13.1501 
160 1 16.3003 3.69972 13.1501 
168 1 13.1501 6.84986 13.1501 
170 1 16.3003 6.84986 13.1501 
208 1 13.1501 3.69972 16.3003 
209 1 14.7252 2.12465 14.7252 
210 1 16.3003 3.69972 16.3003 
219 1 14.7252 5.27479 14.7252 
218 1 13.1501 6.84986 16.3003 
220 1 16.3003 6.84986 16.3003 
172 1 3.69972 10 13.1501 
174 1 6.84986 10 13.1501 
221 1 2.12465 8.42493 14.7252 
223 1 5.27479 8.42493 14.7252 
222 1 3.69972 10 16.3003 
231 1 2.12465 11.5751 14.7252 
233 1 5.27479 11.5751 14.7252 
224 1 6.84986 10 16.3003 
176 1 10 10 13.1501 
225 1 8.42493 8.42493 14.7252 
227 1 11.5751 8.42493 14.7252 
235 1 8.42493 11.5751 14.7252 
226 1 10 10 16.3003 
237 1 11.5751 11.5751 14.7252 
178 1 13.1501 10 13.1501 
180 1 16.3003 10 13.1501 
229 1 14.7252 8.42493 14.7252 
228 1 13.1501 10 16.3003 
230 1 16.3003 10 16.3003 
239 1 14.7252 11.5751 14.7252 
182 1 3.69972 13.1501 13.1501 
184 1 6.84986 13.1501 13.1501 
192 1 3.69972 16.3003 13.1501 
194 1 6.84986 16.3003 13.1501 
232 1 3.69972 13.1501 16.3003 
234 1 6.84986 13.1501 16.3003 
241 1 2.12465 14.7252 14.7252 
242 1 3.69972 16.3003 16.3003 
243 1 5.27479 14.7252 14.7252 
244 1 6.84986 16.3003 16.3003 
186 1 10 13.1501 13.1501 
196 1 10 16.3003 13.1501 
236 1 10 13.1501 16.3003 
245 1 8.42493 14.7252 14.7252 
246 1 10 16.3003 16.3003 
247 1 11.5751 14.7252 14.7252 
188 1 13.1501 13.1501 13.1501 
190 1 16.3003 13.1501 13.1501 
198 1 13.1501 16.3003 13.1501 
200 1 16.3003 16.3003 13.1501 
238 1 13.1501 13.1501 16.3003 
240 1 16.3003 13.1501 16.3003 
248 1 13.1501 16.3003 16.3003 
249 1 14.7252 14.7252 14.7252 
250 1 16.3003 16.3003 16.3003 
