ITEM: TIMESTEP
0
ITEM: NUMBER OF ATOMS
16
ITEM: BOX BOUNDS pp pp pp
8.4986171448988423e-01 7.1501382855101223e+00
8.4986171448988423e-01 7.1501382855101223e+00
8.4986171448988423e-01 7.1501382855101223e+00
ITEM: ATOMS id type x y z 
1 1 0.849862 0.849862 0.849862 
2 1 2.42493 2.42493 2.42493 
3 1 4 0.849862 0.849862 
4 1 5.57507 2.42493 2.42493 
5 1 0.849862 4 0.849862 
6 1 2.42493 5.57507 2.42493 
7 1 4 4 0.849862 
8 1 5.57507 5.57507 2.42493 
9 1 0.849862 0.849862 4 
10 1 2.42493 2.42493 5.57507 
11 1 4 0.849862 4 
12 1 5.57507 2.42493 5.57507 
13 1 0.849862 4 4 
14 1 2.42493 5.57507 5.57507 
15 1 4 4 4 
16 1 5.57507 5.57507 5.57507 
