LAMMPS (3 Mar 2020)

# Mo, bcc
# # ---------- Initialize Simulation ---------------------
clear
units           metal
dimension       3
boundary        p p p
atom_style      atomic
atom_modify     map array

# # ---------- Create Atoms ---------------------
lattice         bcc 4.00
Lattice spacing in x,y,z = 4 4 4
region          box block 0 5 0 5 0 5 units lattice
create_box      1 box
Created orthogonal box = (0 0 0) to (20 20 20)
  1 by 1 by 1 MPI processor grid
create_atoms    1 box
Created 250 atoms
  create_atoms CPU = 0.000193692 secs

# # ---------- Define Interatomic Potential ---------------------
pair_style      eam/alloy
pair_coeff      * * Mo_Zhou04.eam.alloy Mo
Reading potential file Mo_Zhou04.eam.alloy with DATE: 2018-03-30
neighbor        2.0 bin
neigh_modify    delay 10 check yes

#  # ---------- Define Settings ---------------------
compute         eng all pe/atom
compute         eatoms all reduce sum c_eng

#  # ---------- Run Minimization ---------------------
reset_timestep  0
fix             1 all box/relax iso 0.0 vmax 0.001
thermo          10
thermo_style    custom step pe lx ly lz press pxx pyy pzz c_eatoms
min_style       cg
minimize        1e-25 1e-25 5000 10000
WARNING: Using 'neigh_modify every 1 delay 0 check yes' setting during minimization (src/min.cpp:190)
Neighbor list info ...
  update every 1 steps, delay 0 steps, check yes
  max neighbors/atom: 2000, page size: 100000
  master list distance cutoff = 8.10022
  ghost atom cutoff = 8.10022
  binsize = 4.05011, bins = 5 5 5
  1 neighbor lists, perpetual/occasional/extra = 1 0 0
  (1) pair eam/alloy, perpetual
      attributes: half, newton on
      pair build: half/bin/atomonly/newton
      stencil: half/bin/3d/newton
      bin: standard
Per MPI rank memory allocation (min/avg/max) = 4.632 | 4.632 | 4.632 Mbytes
Step PotEng Lx Ly Lz Press Pxx Pyy Pzz c_eatoms 
       0   -490.30867           20           20           20   -530575.56   -530575.56   -530575.56   -530575.56   -490.30867 
      10   -571.95007         19.8         19.8         19.8   -568622.48   -568622.48   -568622.48   -568622.48   -571.95007 
      20   -656.61876         19.6         19.6         19.6    -594526.8    -594526.8    -594526.8    -594526.8   -656.61876 
      30   -742.39715         19.4         19.4         19.4    -608337.7    -608337.7    -608337.7    -608337.7   -742.39715 
      40   -827.59464         19.2         19.2         19.2   -611621.25   -611621.25   -611621.25   -611621.25   -827.59464 
      50   -910.90731           19           19           19   -606895.03   -606895.03   -606895.03   -606895.03   -910.90731 
      60   -991.47377         18.8         18.8         18.8   -596947.16   -596947.16   -596947.16   -596947.16   -991.47377 
      70   -1068.8382         18.6         18.6         18.6   -584244.64   -584244.64   -584244.64   -584244.64   -1068.8382 
      80   -1142.8496         18.4         18.4         18.4   -570519.91   -570519.91   -570519.91   -570519.91   -1142.8496 
      90   -1213.5292         18.2         18.2         18.2   -556526.63   -556526.63   -556526.63   -556526.63   -1213.5292 
     100   -1280.9279           18           18           18    -541935.7    -541935.7    -541935.7    -541935.7   -1280.9279 
     110    -1344.996         17.8         17.8         17.8   -525395.39   -525395.39   -525395.39   -525395.39    -1344.996 
     120   -1405.4871         17.6         17.6         17.6   -504832.49   -504832.49   -504832.49   -504832.49   -1405.4871 
     130    -1461.924         17.4         17.4         17.4   -478035.68   -478035.68   -478035.68   -478035.68    -1461.924 
     140   -1513.6471         17.2         17.2         17.2   -443392.98   -443392.98   -443392.98   -443392.98   -1513.6471 
     150   -1559.9343           17           17           17   -400480.76   -400480.76   -400480.76   -400480.76   -1559.9343 
     160   -1600.1503         16.8         16.8         16.8   -350222.74   -350222.74   -350222.74   -350222.74   -1600.1503 
     170   -1633.8718         16.6         16.6         16.6   -294607.12   -294607.12   -294607.12   -294607.12   -1633.8718 
     180   -1660.9572         16.4         16.4         16.4   -236254.16   -236254.16   -236254.16   -236254.16   -1660.9572 
     190    -1681.571         16.2         16.2         16.2   -178019.41   -178019.41   -178019.41   -178019.41    -1681.571 
     200   -1695.7053           16           16           16   -110044.32   -110044.32   -110044.32   -110044.32   -1695.7053 
     210   -1702.2212         15.8         15.8         15.8   -24120.944   -24120.944   -24120.944   -24120.944   -1702.2212 
     218   -1702.5009    15.750691    15.750691    15.750691 -1.8605397e-10 -1.6298285e-10 -2.0262456e-10 -1.9255449e-10   -1702.5009 
Loop time of 0.100575 on 1 procs for 218 steps with 250 atoms

99.3% CPU use with 1 MPI tasks x no OpenMP threads

Minimization stats:
  Stopping criterion = energy tolerance
  Energy initial, next-to-last, final = 
        -490.308672124     -1702.50086734     -1702.50086734
  Force two-norm initial, final = 7947.82 5.18933e-12
  Force max component initial, final = 7947.82 1.72854e-12
  Final line search alpha, max atom move = 1 1.72854e-12
  Iterations, force evaluations = 218 224

MPI task timing breakdown:
Section |  min time  |  avg time  |  max time  |%varavg| %total
---------------------------------------------------------------
Pair    | 0.087979   | 0.087979   | 0.087979   |   0.0 | 87.48
Neigh   | 0.0029665  | 0.0029665  | 0.0029665  |   0.0 |  2.95
Comm    | 0.0016063  | 0.0016063  | 0.0016063  |   0.0 |  1.60
Output  | 0.00066594 | 0.00066594 | 0.00066594 |   0.0 |  0.66
Modify  | 0          | 0          | 0          |   0.0 |  0.00
Other   |            | 0.007357   |            |       |  7.32

Nlocal:    250 ave 250 max 250 min
Histogram: 1 0 0 0 0 0 0 0 0 0
Nghost:    2081 ave 2081 max 2081 min
Histogram: 1 0 0 0 0 0 0 0 0 0
Neighs:    17000 ave 17000 max 17000 min
Histogram: 1 0 0 0 0 0 0 0 0 0

Total # of neighbors = 17000
Ave neighs/atom = 68
Neighbor list builds = 7
Dangerous builds = 0
unfix           1

#  # ----------- Run simulation of bcc phase of Mo --------------------
reset_timestep  0
thermo          10
thermo_style    custom step lx ly lz press pxx pyy pzz pe temp
thermo_modify   format 2 %22.18f
velocity        all create 300 12345 mom yes rot no
dump            1 all custom 50 dumpPureMoBcc.out id type x y z
fix             2 all npt temp 300 300 1 iso 0 0 1 drag 1
run             9999
Per MPI rank memory allocation (min/avg/max) = 4.897 | 4.897 | 4.897 Mbytes
Step Lx Ly Lz Press Pxx Pyy Pzz PotEng Temp 
       0  15.750691427550595591    15.750691    15.750691    2639.4016    2590.2474    2562.6356    2765.3216   -1702.5009          300 
      10  15.751489654921458694     15.75149     15.75149    3002.7667     2975.752    2941.9134    3090.6348   -1701.1438    257.82256 
      20  15.754043385894151541    15.754043    15.754043    3444.6703    3470.8297    3431.8266    3431.3545   -1697.9832    159.55121 
      30  15.758509277130420045    15.758509    15.758509    2648.8161    2708.0571    2712.3399    2526.0512   -1695.0712    68.918426 
      40  15.764348337559635382    15.764348    15.764348   -37.994798   -16.255448    108.87699   -206.60594   -1694.0746    37.850134 
      50  15.769995546581343504    15.769996    15.769996   -3784.3719   -3865.1687   -3578.3695   -3909.5774   -1695.1502    71.414515 
      60  15.773344997412689139    15.773345    15.773345   -6682.2118   -6867.2956   -6460.3965   -6718.9433   -1697.1123    132.65772 
      70  15.772819527503099124     15.77282     15.77282   -7049.7614    -7282.017   -6851.6743    -7015.593   -1698.5586    177.63097 
      80  15.768298169535214015    15.768298    15.768298   -4573.4666    -4794.443   -4416.8017   -4509.1552   -1698.8768    187.28181 
      90  15.761264199782523576    15.761264    15.761264   -440.24164   -624.05446   -317.39219   -379.27829   -1698.4327    173.39338 
     100  15.754109304831393601    15.754109    15.754109    3519.8922    3391.1724    3625.0998    3543.4044   -1697.9898    159.94715 
     110  15.749088513620325358    15.749089    15.749089    5914.1523     5866.219    6007.9321    5868.3057   -1697.9436    159.00478 
     120  15.747537299756118045    15.747537    15.747537    6325.5182     6342.793    6412.5697    6221.1919   -1698.0476    162.52889 
     130  15.749644138670758409    15.749644    15.749644    5115.2936    5106.4992    5211.1408    5028.2408    -1697.819    155.42763 
     140  15.754659782344539565     15.75466     15.75466    2875.3115    2743.5669    2995.2811    2887.0865   -1697.1513    134.57505 
     150  15.761239667203305714     15.76124     15.76124    65.508927   -186.20076    205.98009    176.74745   -1696.5025    114.44195 
     160  15.767722811859734122    15.767723    15.767723   -2926.4994   -3193.0082   -2791.2734   -2795.2167   -1696.4911    114.37624 
     170  15.772378498625332810    15.772378    15.772378   -5502.6706   -5679.4914    -5395.911   -5432.6094   -1697.3021    140.02389 
     180  15.773766941862124469    15.773767    15.773767   -6776.4534   -6847.1574   -6681.0536   -6801.1492    -1698.457    176.25087 
     190  15.771242059626938925    15.771242    15.771242   -5954.0708   -5981.4542    -5814.322   -6066.4363   -1699.1538    197.95229 
     200  15.765374176473802237    15.765374    15.765374   -2959.8928   -3018.7923   -2733.4027   -3127.4835   -1698.8873    189.61016 
     210  15.757948723534161317    15.757949    15.757949    1238.9583    1099.6032    1537.4931    1079.7787   -1697.8523    157.66235 
     220  15.751382122160485721    15.751382    15.751382    4995.2209    4752.6519    5300.0713    4932.9396   -1696.7944    125.34263 
     230  15.747782866239992572    15.747783    15.747783    6850.6124    6523.3253    7081.9898    6946.5222   -1696.4094    113.90228 
     240  15.748148648309033604    15.748149    15.748149    6290.4507    5950.0047     6398.537    6522.8104   -1696.8105    126.54369 
     250  15.752101188040398938    15.752101    15.752101    3861.3088     3595.206    3852.5013    4136.2191   -1697.5291    148.83548 
     260  15.758206370467640056    15.758206    15.758206    668.27494    522.35837    588.00541    894.46102   -1697.9853     163.1208 
     270  15.764602126656649617    15.764602    15.764602   -2273.3424   -2319.7079   -2374.8596   -2125.4599   -1697.9624    162.82343 
     280  15.769582846874408588    15.769583    15.769583   -4358.1808   -4368.9595   -4434.8968   -4270.6859   -1697.6992    155.22327 
     290  15.771959715012783931     15.77196     15.77196   -5305.5117    -5339.182   -5313.8275   -5263.5257   -1697.5711    151.73216 
     300  15.771230631635635433    15.771231    15.771231    -4974.366   -5046.9176   -4897.0182   -4979.1622   -1697.6883     155.6451 
     310  15.767652899311389803    15.767653    15.767653   -3359.3292   -3441.8324   -3232.7677   -3403.3873   -1697.8253    160.02791 
     320  15.762222303492340103    15.762222    15.762222   -745.38288    -792.7605   -643.68062    -799.7075   -1697.7177    156.87553 
     330  15.756481003789124529    15.756481    15.756481    2188.1214    2195.1697     2203.459    2165.7355   -1697.3582      146.114 
     340  15.752110176896049865     15.75211     15.75211    4503.2388    4536.4813    4409.0378    4564.1973   -1697.0089    135.80145 
     350  15.750397609168764745    15.750398    15.750398    5395.2528    5398.7317    5213.9239    5573.1027   -1696.9769    135.24377 
     360  15.751797937648829517    15.751798    15.751798    4571.2396    4514.7758    4363.9519    4834.9911   -1697.3597    147.36736 
     370  15.755785184441506885    15.755785    15.755785    2350.7016    2262.4068    2174.9547    2614.7435   -1697.9569    166.08928 
     380  15.761048271681291411    15.761048    15.761048   -491.89427   -559.03411   -608.29563   -308.35306   -1698.4114     180.5552 
     390  15.765941450955079262    15.765941    15.765941   -3012.5623   -3039.6524   -3038.3335   -2959.7009    -1698.452    182.37946 
     400  15.769027237484024795    15.769027    15.769027   -4429.8748   -4448.5435   -4321.2048   -4519.8762   -1698.0343    169.99832 
     410  15.769521869032836037    15.769522    15.769522   -4387.3029    -4454.663   -4127.6241   -4579.6214   -1697.3349    148.69391 
     420  15.767491715813118702    15.767492    15.767492   -3039.2239   -3198.1128   -2676.7838   -3242.7752   -1696.6636     128.0693 
     430  15.763752426012075603    15.763752    15.763752   -932.72288   -1195.9541   -578.34433   -1023.8702   -1696.3237    117.70333 
     440  15.759542102744198644    15.759542    15.759542    1229.9844    866.77771    1459.9758    1363.1998   -1696.4649    122.39587 
     450  15.756109660361163449     15.75611     15.75611    2822.5955    2389.1892    2887.6544    3190.9431   -1697.0161     139.9445 
     460  15.754354387756112743    15.754354    15.754354     3443.469    3022.5268    3411.7291     3896.151   -1697.7279    162.51639 
     470  15.754603178369974259    15.754603    15.754603    2997.8926    2708.9263    2984.3651    3300.3863   -1698.2885    180.34976 
     480  15.756569199534510517    15.756569    15.756569    1730.9109    1662.8149    1787.0925    1742.8252   -1698.4693    186.36141 
     490  15.759502745851666106    15.759503    15.759503     146.7348    292.46809    217.93206   -70.195754   -1698.2342     179.4762 
     500  15.762482875114423919    15.762483    15.762483   -1215.5944   -966.56493    -1213.217   -1467.0013   -1697.7395    164.56003 
     510  15.764724209900307983    15.764724    15.764724   -2022.4507   -1829.6238   -2091.3602   -2146.3682   -1697.2372     149.3942 
     520  15.765767792941785430    15.765768    15.765768   -2214.9226   -2207.7925   -2256.9285   -2180.0467   -1696.9453    140.71025 
     530  15.765516642915923029    15.765517    15.765517   -1898.0406   -2110.6022   -1808.9482   -1774.5715   -1696.9456    141.05237 
     540  15.764174024574920452    15.764174    15.764174   -1218.7407    -1572.644   -1001.5423   -1082.0359   -1697.1621     148.0982 
     550  15.762151988158629834    15.762152    15.762152   -345.69524   -698.64959   -117.10205   -221.33408   -1697.4413    157.12247 
     560  15.759966612932657881    15.759967    15.759967     514.9513    294.75653    634.14268    615.95468   -1697.6588    164.27333 
     570  15.758117287138647455    15.758117    15.758117    1174.0676    1150.4157    1161.2631    1210.5241   -1697.7489    167.49558 
     580  15.756980609245180958    15.756981    15.756981    1546.5845    1669.6901    1486.4752    1483.5882   -1697.6745    165.60479 
     590  15.756763340505468562    15.756763    15.756763    1652.6933    1754.3582    1675.4714    1528.2503   -1697.4279    158.33676 
     600  15.757512052333193964    15.757512    15.757512    1508.6039    1395.6196    1706.2955    1423.8967   -1697.0793    147.85303 
     610  15.759121505578665534    15.759122    15.759122    1049.9719    649.97733    1425.9385    1073.9998   -1696.7945    139.31404 
     620  15.761303466128365969    15.761303    15.761303    212.42196   -354.08031    689.73463    301.61156   -1696.7638    138.66762 
     630  15.763560111574207667     15.76356     15.76356   -903.90706   -1397.0242   -448.13335   -866.56366   -1697.0702    148.53233 
     640  15.765250688917083366    15.765251    15.765251      -1950.2   -2182.6676   -1633.1996   -2034.7327   -1697.5865    164.96883 
     650  15.765793468848418257    15.765793    15.765793    -2449.107   -2415.2733   -2318.2975   -2613.7501   -1698.0122    178.60496 
     660  15.764931434515595754    15.764931    15.764931   -2084.9825   -1940.5118   -2088.2427   -2226.1929   -1698.0731    180.88547 
     670  15.762900288207161381      15.7629      15.7629   -944.04026   -870.04361   -962.25692   -999.82025   -1697.7384    170.84895 
     680  15.760368527502265579    15.760369    15.760369    494.66669    411.32168    567.36997    505.30841   -1697.2579    156.28712 
     690  15.758161102567310508    15.758161    15.758161    1638.9288    1418.1284    1815.5905    1683.0676   -1696.9693    147.69602 
     700  15.756926033510824325    15.756926    15.756926     2125.996    1845.8586    2318.3814    2213.7481   -1697.0309    149.97183 
     710  15.756932005327072943    15.756932    15.756932    1953.2126    1701.9722    2047.6542    2110.0113   -1697.3059    158.85313 
     720  15.758067531685570728    15.758068    15.758068    1347.8525    1170.8103    1301.8012    1570.9459   -1697.4924    164.97757 
     730  15.759969576902054911     15.75997     15.75997    545.31148    412.25872    420.75432     802.9214   -1697.3951    162.29164 
     740  15.762159258908555515    15.762159    15.762159   -333.50748   -487.30546   -436.22416    -76.99283   -1697.1059    153.65654 
     750  15.764117154103583829    15.764117    15.764117   -1228.4493   -1419.4964   -1264.3566   -1001.4949   -1696.9218    148.29175 
     760  15.765327410691490684    15.765327    15.765327   -1986.5866   -2159.0222   -1985.7645   -1814.9731    -1697.066    153.12563 
     770  15.765371947136387121    15.765372    15.765372   -2293.5061   -2382.5984   -2303.3584   -2194.5615   -1697.4735    166.12592 
     780  15.764107494009602206    15.764107    15.764107    -1815.403   -1824.6557   -1833.3401   -1788.2132   -1697.8331    177.62704 
     790  15.761842224350882447    15.761842    15.761842   -498.16207   -518.33972   -458.45843   -517.68804   -1697.8498    178.49374 
     800  15.759347130809675974    15.759347    15.759347    1210.6362    1068.2693    1382.2489    1181.3905   -1697.5077    168.25337 
     810  15.757589572303487557     15.75759     15.75759    2491.1544    2202.5058    2804.5143    2466.4431   -1697.0912     155.7067 
     820  15.757273958535225944    15.757274    15.757274    2660.4175     2324.739    3026.7572    2629.7565   -1696.9211    150.75909 
     830  15.758472283274745251    15.758472    15.758472    1674.5037    1427.3088     1951.639    1644.5633   -1697.0531    155.13886 
     840  15.760611073767973878    15.760611    15.760611    152.69889    43.621356     247.1462    167.32912   -1697.2408    161.27323 
     850  15.762820023672979630     15.76282     15.76282   -1115.2728   -1151.8963   -1189.6465   -1004.2754   -1697.2025    160.43808 
     860  15.764372448574750507    15.764372    15.764372   -1717.3743   -1776.6119   -1876.8436   -1498.6673   -1696.9227    152.11312 
     870  15.764919325114282955    15.764919    15.764919   -1746.3341   -1846.7797   -1913.9737   -1478.2488   -1696.6945    145.35838 
     880  15.764445216387670712    15.764445    15.764445   -1489.9358   -1564.7064   -1624.2832   -1280.8177   -1696.8551    150.64754 
     890  15.763112366159871769    15.763112    15.763112   -1066.9368   -1056.2159   -1133.1934   -1011.4013   -1697.4464    169.32501 
     900  15.761190978153713615    15.761191    15.761191   -364.50509   -293.26303   -316.48559   -483.76666   -1698.1022    190.04872 
     910  15.759109532255372699     15.75911     15.75911    693.65146    745.40468    865.19699    470.35271   -1698.2906      196.308 
     920  15.757480660346811163    15.757481    15.757481    1848.1866    1840.9972    2052.3223    1651.2405   -1697.7626    180.33155 
     930  15.756946254523649387    15.756946    15.756946    2528.8477    2504.5521    2617.0259     2464.965   -1696.8227    151.50161 
     940  15.757861664837793825    15.757862    15.757862    2229.3833    2246.3658    2139.7414    2302.0427   -1696.1226    130.01332 
     950  15.760024199984290050    15.760024    15.760024     908.9815     961.1457     732.7689    1033.0299   -1696.1371     130.6801 
     960  15.762664595028528680    15.762665    15.762665   -880.99272   -867.49119   -992.64399   -782.84298    -1696.807    151.77663 
     970  15.764766149819962493    15.764766    15.764766   -2263.7898   -2364.3206   -2247.6948    -2179.354   -1697.6277    177.66057 
     980  15.765557652661371435    15.765558    15.765558   -2567.6809   -2794.5418    -2495.141   -2413.3599   -1698.0469    191.10073 
     990  15.764883948383941359    15.764884    15.764884   -1752.8065   -2038.0657   -1726.2058   -1494.1481   -1697.8563    185.55829 
    1000  15.763219625516875055     15.76322     15.76322   -407.76777   -632.78149   -438.26782   -152.25399   -1697.3186    169.20618 
    1010  15.761333312519784755    15.761333    15.761333     685.0634    625.50876    675.70759    753.97386   -1696.9222    157.23436 
    1020  15.759849254342000791    15.759849    15.759849    1087.7656    1217.9514    1166.2846    879.06088   -1696.9377    158.05776 
    1030  15.759004921277757205    15.759005    15.759005    946.03358    1185.7531    1098.2414    554.10622    -1697.185    166.08317 
    1040  15.758731497346300188    15.758731    15.758731    747.00288    947.39935    905.18028    388.42901   -1697.2462    168.33196 
    1050  15.758919070307438659    15.758919    15.758919    805.89476     829.5534    913.24374    674.88715   -1696.9192    158.51885 
    1060  15.759586512407647518    15.759587    15.759587    959.30325    770.98111    991.76709    1115.1616     -1696.46    144.56865 
    1070  15.760793291478954359    15.760793    15.760793    762.20493    461.45878    708.88953    1116.2665    -1696.356    141.62193 
    1080  15.762402635197702239    15.762403    15.762403   -16.905857   -268.24311   -157.35334    374.87888   -1696.8443    157.09332 
    1090  15.763963894885106853    15.763964    15.763964   -1094.2342   -1194.2628   -1283.5516   -804.88802   -1697.6536    182.59636 
    1100  15.764875595138825304    15.764876    15.764876   -1841.6051   -1824.9591   -1984.3954   -1715.4609   -1698.2161    200.49082 
    1110  15.764733132407446448    15.764733    15.764733   -1769.1374   -1776.3942   -1762.4579   -1768.5601   -1698.1376    198.47018 
    1120  15.763594634331365540    15.763595    15.763595    -910.8086   -1052.0423   -745.99201   -934.39153   -1697.4956    178.90372 
    1130  15.761955009820571405    15.761955    15.761955     210.6737   -33.815001    416.31529     249.5208   -1696.7369    155.67751 
    1140  15.760452069858207125    15.760452    15.760452    1001.0096    792.59926    1113.6966    1096.7331    -1696.307    142.64562 
    1150  15.759535584175736744    15.759536    15.759536    1206.5802    1154.5856    1209.3962    1255.7587    -1696.343     144.0733 
    1160  15.759325291749135545    15.759325    15.759325    987.48444    1102.6896    981.52702    878.23671   -1696.6547    154.07056 
    1170  15.759697476053981191    15.759697    15.759697    660.51627    854.27191    752.36272    374.91417   -1696.9529    163.66558 
    1180  15.760459149210049645    15.760459    15.760459    389.55476    538.77403    592.78757    37.102663   -1697.1024       168.66 
    1190  15.761441041751261594    15.761441    15.761441    102.32622    110.37841    336.13705   -139.53679   -1697.1922    171.81346 
    1200  15.762463845198762868    15.762464    15.762464   -329.94027   -500.84057   -153.40694    -335.5733   -1697.3699    177.70623 
    1210  15.763274711021081131    15.763275    15.763275   -856.58358     -1177.74   -756.04383   -635.96686   -1697.6049    185.39198 
    1220  15.763581126062401694    15.763581    15.763581   -1195.2041   -1576.1266   -1130.7071   -878.77868   -1697.6533     187.2911 
    1230  15.763207084583452655    15.763207    15.763207   -1044.6021   -1358.6292   -973.04814   -802.12889   -1697.3006    176.71251 
    1240  15.762253284699781375    15.762253    15.762253   -383.48125   -526.14752   -290.72833    -333.5679   -1696.6398     156.5299 
    1250  15.761100319751236043      15.7611      15.7611    439.50961      493.785    541.59784      283.146    -1696.091     139.7986 
    1260  15.760211560054951718    15.760212    15.760212    955.61136    1149.4645    1035.3099    682.05967   -1696.0965    140.27605 
    1270  15.759875764491152239    15.759876    15.759876    953.91846    1182.5304    976.07569    703.14927   -1696.7281    160.21431 
    1280  15.760092417898684758    15.760092    15.760092    604.91658    761.55937     573.5493    479.64106   -1697.5856    187.21554 
    1290  15.760665056824009866    15.760665    15.760665    239.79587    261.65246    213.92604    243.80911   -1698.1087    203.88037 
    1300  15.761383241840949410    15.761383    15.761383    46.219329   -55.917683    74.003771     120.5719   -1697.9994    200.91797 
    1310  15.762127079319480316    15.762127    15.762127   -46.321698   -198.55054    10.296935    49.288507   -1697.3985    182.66091 
    1320  15.762831532238735122    15.762832    15.762832   -226.77538   -356.40018   -193.61932   -130.30664   -1696.7334    162.36639 
    1330  15.763386495862121706    15.763386    15.763386    -568.6563   -676.23462   -547.11008   -482.62419   -1696.3855    151.88915 
    1340  15.763600597168736073    15.763601    15.763601   -910.72376    -1075.435   -810.95221   -845.78409   -1696.4219    153.33819 
    1350  15.763292673402414579    15.763293    15.763293   -955.71032   -1261.1847   -707.24131   -898.70496   -1696.6107    159.52502 
    1360  15.762453876853832924    15.762454    15.762454   -522.50769   -973.76873   -171.91071   -421.84361   -1696.6942    162.45583 
    1370  15.761341281263796077    15.761341    15.761341    256.19496   -247.59515    576.10332     440.0767    -1696.636    160.99522 
    1380  15.760397236996636749    15.760397    15.760397    974.73057    565.23214     1167.014    1191.9456   -1696.6136     160.6535 
    1390  15.760021426565646863    15.760021    15.760021    1226.9218      1039.25    1298.8374     1342.678   -1696.8013    166.84198 
    1400  15.760347822049501687    15.760348    15.760348    900.22143    984.27626    906.42541    809.96264     -1697.16    178.34869 
    1410  15.761186221076897596    15.761186    15.761186    243.33975    549.78571    194.94809   -14.714543   -1697.4389    187.39401 
    1420  15.762162886654987659    15.762163    15.762163   -338.84691    40.611543   -455.54127   -601.61101    -1697.403    186.68129 
    1430  15.762946350243208116    15.762946    15.762946   -582.49602   -326.18518   -726.14516   -695.15771   -1697.0708    176.75972 
    1440  15.763393439613683000    15.763393    15.763393   -534.30572   -519.08799   -634.00926   -449.81991   -1696.7308    166.56924 
    1450  15.763523861005069193    15.763524    15.763524   -456.29984   -630.72852   -517.45264   -220.71836   -1696.7078    166.20747 
    1460  15.763378744692040812    15.763379    15.763379   -528.99454   -724.76637   -642.69053   -219.52672   -1697.0633    177.60975 
    1470  15.762926122493237102    15.762926    15.762926   -620.97152   -708.67408   -838.63614   -315.60435   -1697.4939    191.37068 
    1480  15.762134403834181740    15.762134    15.762134   -392.36231   -385.99299    -615.6225   -175.47142    -1697.566    194.00814 
    1490  15.761151663994812822    15.761152    15.761152    303.44939      284.609    277.65323    348.08594   -1697.1191    180.52516 
    1500  15.760373482780863696    15.760373    15.760373    1127.1858     988.1419    1416.8149    976.60063   -1696.4576    160.34833 
    1510  15.760249190013002618    15.760249    15.760249    1450.8243    1208.3847    1952.2606    1191.8275   -1696.1064    149.76762 
    1520  15.760940747463095590    15.760941    15.760941    920.96669    673.13261    1401.2922    688.47529   -1696.3325    157.09722 
    1530  15.762139046267543918    15.762139    15.762139    -163.5583   -337.61487    150.82182   -303.88186   -1696.8844    174.57857 
    1540  15.763235783055060679    15.763236    15.763236   -1063.5722   -1164.8462   -883.45538    -1142.415   -1697.2166    185.28781 
    1550  15.763731771928249259    15.763732    15.763732   -1205.5962   -1274.6523   -1062.3879   -1279.7484   -1696.9875    178.56994 
    1560  15.763550295958172143     15.76355     15.76355   -628.93664   -663.78936   -496.26898   -726.75157   -1696.3665    159.64162 
    1570  15.763012026721579417    15.763012    15.763012    98.531919    151.21118    177.70265   -33.318081   -1695.9019    145.53711 
    1580  15.762520699593496332    15.762521    15.762521    391.04843    543.88828    407.02736    222.22964   -1696.0807    151.40836 
    1590  15.762241212178977889    15.762241    15.762241    118.46384    263.05116    142.27525   -49.934901   -1696.9213    177.86733 
    1600  15.762029765499951495     15.76203     15.76203   -335.20562   -374.64273   -223.90388   -407.07024   -1697.9103    208.99821 
    1610  15.761646036063320153    15.761646    15.761646   -435.89814   -739.29613   -248.12087   -320.27742   -1698.3565    223.31395 
    1620  15.761044794425917104    15.761045    15.761045    31.125079   -409.70223    196.62291    306.45456   -1697.9101    209.90431 
    1630  15.760489732809446650     15.76049     15.76049    778.46828     452.8087    851.66318     1030.933   -1696.8403    177.08648 
    1640  15.760391209534020618    15.760391    15.760391    1244.4768    1205.8975    1264.5503    1262.9826   -1695.8429    146.44353 
    1650  15.760994909752788828    15.760995    15.760995    1010.3905     1221.109    1082.8846    727.17781   -1695.5275    136.92516 
    1660  15.762153775686979174    15.762154    15.762154    108.56526    381.94213    309.24819   -365.49453   -1695.9918    151.63102 
    1670  15.763353660618129481    15.763354    15.763354   -963.18144   -796.08979   -657.89207   -1435.5625   -1696.8051    177.24409 
    1680  15.763996103866546150    15.763996    15.763996   -1548.4789   -1544.4474   -1246.0504   -1854.9388   -1697.3751    195.35571 
    1690  15.763763757594910331    15.763764    15.763764   -1275.0799   -1414.2618   -1073.5924   -1337.3856   -1697.3754    195.77726 
    1700  15.762821907014959777    15.762822    15.762822   -323.37646   -574.31669   -238.51169   -157.30101   -1696.9256    182.19751 
    1710  15.761710808450203558    15.761711    15.761711    694.12314    367.14444    714.75999     1000.465   -1696.4463    167.68106 
    1720  15.761000866740772608    15.761001    15.761001     1163.795    821.48867    1185.0781    1484.8181    -1696.321    164.14343 
    1730  15.760953107914698279    15.760953    15.760953    902.50749    611.49951    973.64658    1122.3764   -1696.6043    173.29284 
    1740  15.761421597648412884    15.761422    15.761422     256.1538    47.442613    408.26745    312.75133    -1696.996    185.82649 
    1750  15.762046146229845789    15.762046    15.762046   -230.97094   -374.99003    11.627955   -329.55076   -1697.1171    189.98197 
    1760  15.762552307337728053    15.762552    15.762552    -271.8727   -382.70496    24.603604   -457.51674   -1696.8558    182.25865 
    1770  15.762909899419469184     15.76291     15.76291   -17.910499   -94.764368    239.71051   -198.67764   -1696.4569    170.23948 
    1780  15.763250264442701720     15.76325     15.76325    134.41971    113.76602    261.39495    28.098149   -1696.2843    165.22739 
    1790  15.763648993060410675    15.763649    15.763649   -92.592752   -75.793231   -101.93236   -100.05267   -1696.5125    172.66323 
    1800  15.763975529059049308    15.763976    15.763976   -615.29961   -626.20446   -671.81923   -547.87515    -1697.006    188.36567 
    1810  15.763943300091110444    15.763943    15.763943   -1032.6518   -1109.6816   -1037.2469   -951.02702   -1697.4133    201.42051 
    1820  15.763333434403211442    15.763333    15.763333   -921.39671   -1021.8737   -858.32172   -883.99466   -1697.3973    201.32857 
    1830  15.762225421136072612    15.762225    15.762225   -183.32884   -206.70787   -136.70197   -206.57668   -1696.8937    186.07697 
    1840  15.761043245132263735    15.761043    15.761043     819.3912    952.47005    749.43284    756.27069   -1696.2047    165.04487 
    1850  15.760347423058121308    15.760347    15.760347    1479.1715    1756.9721    1284.9587    1395.5836   -1695.7983    152.75713 
    1860  15.760498062012908704    15.760498    15.760498    1386.0634    1690.7581    1184.5766    1282.8554   -1695.9453    157.63517 
    1870  15.761433079842056770    15.761433    15.761433    640.75664    813.14395    586.34222    522.78373   -1696.4966    175.08599 
    1880  15.762728666506845343    15.762729    15.762729   -243.57642   -292.61986    -103.6977    -334.4117   -1696.9946    190.92796 
    1890  15.763884562869897366    15.763885    15.763885   -765.14303   -991.46891   -537.29462   -766.66556   -1697.0455    192.91835 
    1900  15.764601027088183116    15.764601    15.764601    -812.9535   -1078.4948   -648.47017   -711.89548   -1696.6542    181.16339 
    1910  15.764841119067858344    15.764841    15.764841   -672.62983   -843.21793   -635.08187   -539.58969   -1696.2158    167.91276 
    1920  15.764677177758597892    15.764677    15.764677   -670.00087   -690.22456   -709.77831   -609.99975   -1696.1548    166.35837 
    1930  15.764116007422778409    15.764116    15.764116    -810.6106   -714.69409   -836.29502   -880.84269   -1696.5425    178.74515 
    1940  15.763098057256684115    15.763098    15.763098   -755.54051    -627.0802   -707.00421   -932.53711   -1697.0501    194.88181 
    1950  15.761681022843291089    15.761681    15.761681   -157.74412   -85.889657   -23.725314    -363.6174    -1697.263    201.89527 
    1960  15.760220670904159235    15.760221    15.760221    919.98772     868.7929    1116.9986    774.17161   -1697.0536    195.80718 
    1970  15.759323604135857977    15.759324    15.759324    1906.6638    1724.3931     2118.252    1877.3464   -1696.6852    184.77343 
    1980  15.759526301775668600    15.759526    15.759526    2095.7831    1856.3913    2256.5127    2174.4453   -1696.5591    181.22017 
    1990  15.760909383814865947    15.760909    15.760909    1204.0456    1015.4092    1277.4402    1319.2873   -1696.8137    189.46417 
    2000  15.762952473829454192    15.762952    15.762952   -338.24287   -422.07583   -311.61843   -281.03436   -1697.1504    200.29705 
    2010  15.764783287153594671    15.764783    15.764783   -1631.0681    -1631.301   -1551.9875   -1709.9159   -1697.0824    198.60772 
    2020  15.765679093172151326    15.765679    15.765679   -1958.5096   -1920.7388    -1752.124   -2202.6661   -1696.4038    177.93362 
    2030  15.765460066479034751     15.76546     15.76546   -1314.1813    -1272.014   -1003.3641   -1667.1658   -1695.4504    148.64878 
    2040  15.764489964256368282     15.76449     15.76449   -320.71639   -298.66572   -16.512542   -646.97091   -1694.8925    131.59242 
    2050  15.763330384205685775     15.76333     15.76333    339.67573     317.2337    531.63865    170.15484   -1695.2108     141.7544 
    2060  15.762362009532322915    15.762362    15.762362    440.38702    356.90086    500.70215    463.55807   -1696.2912    175.64284 
    2070  15.761656828487513593    15.761657    15.761657    269.81734    127.76618    257.92408    423.76174   -1697.4827     213.0546 
    2080  15.761133727750721079    15.761134    15.761134    265.57208    84.404774    261.75394    450.55753   -1698.0725    231.83679 
    2090  15.760796196755290310    15.760796    15.760796    585.75029    383.22223    667.99327    706.03537   -1697.7933    223.63577 
    2100  15.760817419194296463    15.760817    15.760817    981.36312    764.55018    1226.6798    952.85937   -1696.9657    198.35434 
    2110  15.761403832653748225    15.761404    15.761404    1041.1462    826.23791    1469.4258    827.77497    -1696.188     174.5573 
    2120  15.762571463252873727    15.762571    15.762571    556.46497    380.82086    1065.5231    223.05095    -1695.858    164.62537 
    2130  15.764034607848028458    15.764035    15.764035   -306.60725   -427.59701     125.8207   -618.04545   -1695.9398    167.48786 
    2140  15.765301492187939303    15.765301    15.765301   -1129.8505   -1251.4208   -832.08969   -1306.0412   -1696.1349    173.90024 
    2150  15.765908513524090395    15.765909    15.765909    -1536.681   -1735.0048   -1298.5463   -1576.4919    -1696.232    177.28385 
    2160  15.765630542416777971    15.765631    15.765631   -1417.9067   -1680.7138   -1156.9368   -1416.0696   -1696.2839    179.25134 
    2170  15.764542542117014889    15.764543    15.764543   -925.33077   -1136.5483   -660.34533   -979.09863   -1696.4815    185.74252 
    2180  15.762935946257808695    15.762936    15.762936   -273.29613   -332.11042   -95.244717   -392.53325   -1696.8884     198.7537 
    2190  15.761198358181879087    15.761198    15.761198    442.58639    496.47975    487.77839    343.50103   -1697.2915    211.68355 
    2200  15.759753643151352520    15.759754    15.759754     1208.669    1209.3284    1192.6573    1224.0213   -1697.3276    213.24075 
    2210  15.759042288314642377    15.759042    15.759042    1886.5814    1703.0664    1940.9499    2015.7279   -1696.8168    197.79696 
    2220  15.759434522244246679    15.759435    15.759435    2117.2176    1799.6574    2302.0791    2249.9164   -1696.0068    172.99339 
    2230  15.761031044861077532    15.761031    15.761031    1533.8707    1270.5797    1794.5716    1536.4609    -1695.438    155.60672 
    2240  15.763471134205461865    15.763471    15.763471    148.21173    77.382579    403.93949   -36.686867   -1695.4907    157.51851 
    2250  15.765954046157528268    15.765954    15.765954   -1487.0404   -1399.1264   -1252.1421   -1809.8526   -1696.0569    175.45589 
    2260  15.767556089526568286    15.767556    15.767556   -2558.6787   -2457.4894   -2311.8013   -2906.7455   -1696.6681    194.85506 
    2270  15.767685101750288368    15.767685    15.767685   -2526.6567   -2513.6614   -2274.2399   -2792.0688   -1696.9155     202.9459 
    2280  15.766376222360076298    15.766376    15.766376    -1493.223   -1554.2079   -1311.6367   -1613.8244   -1696.7585    198.43703 
    2290  15.764227744956301080    15.764228    15.764228   -97.520477   -158.40481   -65.313972    -68.84265   -1696.4897    190.45082 
    2300  15.762039732159447425     15.76204     15.76204    965.07336    966.76894    836.27216     1092.179   -1696.4276    188.91175 
    2310  15.760422603933854191    15.760423    15.760423    1372.1915    1470.7406    1133.7156    1512.1184   -1696.6169    195.19389 
    2320  15.759614885054171296    15.759615    15.759615    1262.1913    1460.8167    986.64381    1339.1134   -1696.8047    201.42926 
    2330  15.759558642789952998    15.759559    15.759559    997.75255    1235.3008    757.14919    1000.8076   -1696.7049    198.72141 
    2340  15.760099807437711661      15.7601      15.7601    821.52627    976.32414    667.83181    820.42287   -1696.2835    186.00337 
    2350  15.761123155880461866    15.761123    15.761123    679.59995    661.59645    619.42856    757.77485   -1695.8061    171.51418 
    2360  15.762526645050563445    15.762527    15.762527    351.59737    183.04775    357.67552    514.06882   -1695.6219    166.10986 
    2370  15.764106441866339026    15.764106    15.764106   -258.24351   -469.89278    -216.7492   -88.088541   -1695.8663    174.02885 
    2380  15.765510224504204473     15.76551     15.76551   -959.43771   -1128.2023   -896.50407    -853.6067   -1696.3265    188.69037 
    2390  15.766345248080563479    15.766345    15.766345   -1396.7736   -1545.5161   -1278.4587    -1366.346   -1696.6142    198.02095 
    2400  15.766373519339900611    15.766374    15.766374   -1340.1149   -1571.9381   -1079.3557    -1369.051    -1696.526    195.67439 
    2410  15.765635726776359604    15.765636    15.765636   -873.20852    -1250.496   -417.19573   -951.93387   -1696.2459    187.34431 
    2420  15.764402148539467419    15.764402    15.764402   -308.85878   -788.72465    251.78845   -389.64015    -1696.166    185.22079 
    2430  15.762999533532095597       15.763       15.763    96.886341   -374.30586    544.41366    120.55122   -1696.5013    196.00464 
    2440  15.761670350389405115     15.76167     15.76167    355.48737    7.5587189    511.95726    546.94614   -1697.0581    213.69881 
    2450  15.760576674226451033    15.760577    15.760577    666.96972    518.00482    545.01383    937.89051   -1697.3468     223.0936 
    2460  15.759905165582345887    15.759905    15.759905    1149.4043    1212.6256    933.25688    1302.3304   -1696.9718    211.87217 
    2470  15.759925117174359954    15.759925    15.759925     1625.475    1841.9811    1510.0971    1524.3467   -1696.0151    182.53712 
    2480  15.760884427891845405    15.760884    15.760884    1657.8683    1915.3913    1715.8914    1342.3224   -1695.0591    153.14129 
    2490  15.762769345745439864    15.762769    15.762769     878.1162    1055.3301    1075.0736    503.94488   -1694.7711    144.44387 
    2500  15.765111748713572126    15.765112    15.765112   -613.95246   -596.56694   -349.18226   -896.10818   -1695.3919    164.01864 
    2510  15.767059010634849159    15.767059    15.767059   -2153.8672   -2303.5173   -1907.4402   -2250.6442   -1696.5465    200.27182 
    2520  15.767752388465801516    15.767752    15.767752    -2878.945   -3150.3145   -2720.2009   -2766.3194   -1697.5042    230.46508 
    2530  15.766806682821270513    15.766807    15.766807   -2314.9846   -2653.2866   -2242.8708   -2048.7963   -1697.6801    236.35096 
    2540  15.764565856194179716    15.764566    15.764566   -721.11405   -1071.6552   -663.74157   -427.94535   -1697.0181    216.17636 
    2550  15.761947726747729703    15.761948    15.761948    1089.0263    788.63913    1215.8707     1262.569   -1695.9933    184.73683 
    2560  15.759981443045672833    15.759981    15.759981    2271.0722    2061.1878    2492.7883    2259.2405   -1695.2482     161.9692 
    2570  15.759331838376843038    15.759332    15.759332     2406.231    2260.3217    2667.6409    2290.7303   -1695.1531    159.33961 
    2580  15.760066662710372043    15.760067    15.760067    1641.0327    1474.5609    1858.4207    1590.1165   -1695.6207    174.15867 
    2590  15.761742011154925791    15.761742    15.761742    491.50056    243.44792     601.4689    629.58487   -1696.2594    194.32779 
    2600  15.763694913363107020    15.763695    15.763695    -507.5045   -804.54108   -516.28215   -201.69028   -1696.6868    207.99606 
    2610  15.765347122438644334    15.765347    15.765347   -1073.5181   -1326.0096   -1127.5706   -766.97408   -1696.7674    210.92767 
    2620  15.766367262518780734    15.766367    15.766367    -1238.376   -1383.6927   -1223.9912    -1107.444   -1696.6289    207.04439 
    2630  15.766656791392524184    15.766657    15.766657   -1196.4417   -1248.0328   -1075.6953   -1265.5969    -1696.458    202.12958 
    2640  15.766243749655391326    15.766244    15.766244   -1080.9554    -1096.598   -937.24134   -1209.0269   -1696.2983    197.54007 
    2650  15.765208870976206157    15.765209    15.765209   -841.48173    -862.5734    -792.6604    -869.2114    -1696.083    191.20323 
    2660  15.763709498419814281    15.763709    15.763709   -344.30222   -371.52451   -428.32071   -233.06144    -1695.812    183.12626 
    2670  15.762044798461193551    15.762045    15.762045    391.74373    375.29223    229.92167    570.01727   -1695.6086    177.15126 
    2680  15.760637886494405890    15.760638    15.760638    1110.5887    1110.5965    944.73723    1276.4323   -1695.6237     177.9748 
    2690  15.759892203257074073    15.759892    15.759892    1493.7653    1512.4006    1362.6249    1606.2705   -1695.9281     187.7956 
    2700  15.760016711130429456    15.760017    15.760017    1397.0191      1453.65    1327.2778    1410.1294   -1696.4381    204.00862 
    2710  15.760947516609933317    15.760948    15.760948    920.48224    1028.9418    973.72699    758.77796   -1696.9073    218.96657 
    2720  15.762404551583827583    15.762405    15.762405    293.83715    431.66017    527.00935   -77.158058   -1697.0502    223.81377 
    2730  15.764021639560684918    15.764022    15.764022   -278.78963   -150.54764    86.810481   -772.63174   -1696.7388    214.55403 
    2740  15.765463194091651644    15.765463    15.765463   -708.72318   -613.57842   -350.91747   -1161.6737   -1696.1195    195.71113 
    2750  15.766476812627423953    15.766477    15.766477   -1009.5135   -947.69817   -762.06218   -1318.7801   -1695.5504     178.3952 
    2760  15.766889331502333960    15.766889    15.766889   -1202.8988   -1169.8393   -1039.2379   -1399.6192   -1695.3652    172.97254 
    2770  15.766597532223332934    15.766598    15.766598   -1236.3683   -1251.1978   -1041.9762   -1415.9309   -1695.6197    181.20227 
    2780  15.765597799841529536    15.765598    15.765598   -994.33955   -1090.6971   -697.91539   -1194.4061   -1696.0608    195.24013 
    2790  15.764047490004703178    15.764047    15.764047   -401.16029   -575.73765   -63.120643   -564.62259   -1696.3582    204.84009 
    2800  15.762300825290143536    15.762301    15.762301    460.01098    267.75505    704.59471    407.68317   -1696.3575    205.20734 
    2810  15.760853565508318397    15.760854    15.760854    1293.7323    1160.4011    1370.7996    1349.9962   -1696.1472    199.07405 
    2820  15.760172650652647164    15.760173    15.760173    1712.0674    1687.1212    1667.6214    1781.4598   -1695.9583    193.59012 
    2830  15.760481869108726727    15.760482    15.760482    1493.4445    1578.1743    1447.9905    1454.1688   -1695.9756    194.48285 
    2840  15.761644195208297958    15.761644    15.761644    755.14477     910.7519    804.91965    549.76275   -1696.1618    200.61196 
    2850  15.763232531510702472    15.763233    15.763233   -113.36757    78.620869    16.992852   -435.71643   -1696.2717    204.39246 
    2860  15.764749536027188981     15.76475     15.76475   -712.01643   -489.94275   -605.67698   -1040.4296   -1696.1014    199.48856 
    2870  15.765850053837617395     15.76585     15.76585   -906.07817   -665.96894   -901.43289   -1150.8327   -1695.7304    188.34405 
    2880  15.766415407643005864    15.766415    15.766415   -884.32472   -693.05228   -956.17616   -1003.7457   -1695.4954    181.39927 
    2890  15.766452035346365079    15.766452    15.766452   -908.81161   -880.66387   -971.85075    -873.9202   -1695.7019    188.15681 
    2900  15.765952248378585665    15.765952    15.765952   -990.78923   -1202.9892   -979.50236   -789.87613   -1696.3182    207.66134 
    2910  15.764890545515854114    15.764891    15.764891   -842.99269   -1247.0432   -727.12273   -554.81213   -1696.9285    227.00354 
    2920  15.763377271402424284    15.763377    15.763377   -188.89098   -620.42477    48.801459    4.9503751   -1697.0383    230.82397 
    2930  15.761799932358744769      15.7618      15.7618    866.61237    573.08583    1203.5208    823.23051    -1696.502    214.58619 
    2940  15.760754498230737042    15.760754    15.760754    1795.6514    1676.2645    2116.8834    1593.8062   -1695.6702    189.14084 
    2950  15.760749918065354080     15.76075     15.76075    2008.2518    1932.6599    2151.7247    1940.3708   -1695.1132    172.16784 
    2960  15.761885757217873660    15.761886    15.761886    1301.1791    1089.7171    1190.3454    1623.4747   -1695.1847    174.67344 
    2970  15.763746066418388381    15.763746    15.763746    5.6715169   -398.06872   -264.41824    679.50152   -1695.7839    193.60144 
    2980  15.765590383530089014     15.76559     15.76559   -1224.9085   -1686.7265   -1452.9369   -535.06201   -1696.4514     214.7252 
    2990  15.766723102717330462    15.766723    15.766723   -1806.7598   -2103.1113   -1860.8541   -1456.3139   -1696.6993    222.85556 
    3000  15.766819899484101342     15.76682     15.76682   -1566.6252   -1570.0015   -1484.5717   -1645.3024   -1696.3573    212.63618 
    3010  15.766021981682733610    15.766022    15.766022   -801.38049   -566.78873   -715.06944   -1122.2833   -1695.6911    192.30116 
    3020  15.764767380704945765    15.764767    15.764767   -21.300872    280.38264   -8.0787099   -336.20654   -1695.1905    177.08455 
    3030  15.763504452952108892    15.763504    15.763504    420.90406    604.48568    401.35268    256.87382   -1695.1846    177.22535 
    3040  15.762494926913911186    15.762495    15.762495    542.71523    479.32338    578.24867    570.57363   -1695.6062    190.66243 
    3050  15.761820905606878540    15.761821    15.761821    608.53569    278.32384    717.78684     829.4964   -1696.1091    206.65355 
    3060  15.761525798815601007    15.761526    15.761526    792.91884    299.31317    890.93879    1188.5045   -1696.4012     216.1218 
    3070  15.761707221524357436    15.761707    15.761707    979.93983    502.54447    970.03381    1467.2412   -1696.4632    218.44756 
    3080  15.762453595890981717    15.762454    15.762454    875.18807    592.72437     761.5708     1271.269   -1696.4705    219.06343 
    3090  15.763686287215993076    15.763686    15.763686    308.48914    326.34916    195.28352    403.83475   -1696.5355    221.46763 
    3100  15.765073479823097813    15.765073    15.765073   -537.98517   -216.01446   -556.68431   -841.25673   -1696.5481    222.25398 
    3110  15.766136647881594968    15.766137    15.766137     -1215.56   -682.38909   -1143.2089   -1821.0821   -1696.2866    214.52996 
    3120  15.766499293521301084    15.766499    15.766499   -1355.5523   -811.87501   -1259.4008    -1995.381   -1695.6782    196.00338 
    3130  15.766089006595684907    15.766089    15.766089   -945.98321   -656.61636   -871.09034   -1310.2429   -1694.9414    173.44127 
    3140  15.765142029292416481    15.765142    15.765142   -300.61793   -417.94985   -250.72952   -233.17443    -1694.488    159.64612 
    3150  15.764027933219164623    15.764028    15.764028    217.06632   -200.67811    246.14782    605.72923   -1694.6516    165.02271 
    3160  15.763047010091206346    15.763047    15.763047    460.60043    40.510537    443.85009    897.44066   -1695.4184    189.16726 
    3170  15.762347564035835035    15.762348    15.762348    549.43546    385.52929    437.90221    824.87486   -1696.3752    219.26397 
    3180  15.761988666544663573    15.761989    15.761989    678.34608    798.62505    480.13349     756.2797   -1696.9807    238.49531 
    3190  15.762043332463134604    15.762043    15.762043    871.49912    1098.5152    694.04693    821.93519   -1696.9699    238.59774 
    3200  15.762608277819243341    15.762608    15.762608    905.66724    1056.3515    854.66484    805.98532   -1696.5255    225.20439 
    3210  15.763681836464932928    15.763682    15.763682    505.45858    543.91866    567.41981    405.03727   -1696.0534    210.91467 
    3220  15.765020674418330771    15.765021    15.765021     -319.478   -296.37312   -247.27202   -414.78885   -1695.8066    203.60704 
    3230  15.766155479941687645    15.766155    15.766155   -1151.4434   -1024.0986   -1119.6027   -1310.6288   -1695.7267    201.48696 
    3240  15.766626166685666632    15.766626    15.766626   -1445.7176   -1169.6683   -1376.3412   -1791.1432   -1695.6069      198.123 
    3250  15.766279336470057970    15.766279    15.766279   -995.82524   -635.03111   -786.68096   -1565.7637   -1695.3769    191.31878 
    3260  15.765374333686535735    15.765374    15.765374   -150.49255    161.26613    149.42218   -762.16597   -1695.2192    186.75081 
    3270  15.764386237777316069    15.764386    15.764386    477.42129    619.43908    650.61059     162.2142   -1695.3846    192.23067 
    3280  15.763669215513134603    15.763669    15.763669    550.43509    483.30331    410.39012    757.61185   -1695.8906    208.30907 
    3290  15.763271851076577690    15.763272    15.763272    247.42697    25.810463   -156.52896    872.99941   -1696.4301    225.45074 
    3300  15.763034512461803871    15.763035    15.763035     21.25103   -260.46408   -376.31876    700.53593   -1696.5988    231.09435 
    3310  15.762836502528749349    15.762837    15.762837    157.96601   -129.23267    44.628131    558.50258   -1696.2284    219.98971 
    3320  15.762751459599652293    15.762751    15.762751    534.46144    256.77721    790.00919    556.59792   -1695.5341    198.79268 
    3330  15.762979487919867694    15.762979    15.762979    763.04513    536.65469    1250.1494    502.33132   -1694.9568     181.1895 
    3340  15.763635520634094789    15.763636    15.763636    549.44504    451.08179     1020.272    176.98134   -1694.8382    177.81261 
    3350  15.764589114533883674    15.764589    15.764589   -73.867838    -16.10226    169.99618   -375.49743   -1695.1993    189.34787 
    3360  15.765485164745669522    15.765485    15.765485   -779.81242    -656.9195   -832.94621   -849.57157   -1695.7695    207.41438 
    3370  15.765929366605849538    15.765929    15.765929   -1154.9117   -1137.2032   -1413.6088   -913.92322   -1696.1999    221.17068 
    3380  15.765718771752840865    15.765719    15.765719   -972.37354   -1177.4065    -1234.957   -504.75714   -1696.3026    224.75889 
    3390  15.764964094309966924    15.764964    15.764964   -360.92168   -756.55502   -423.64446    97.434418   -1696.1549    220.55794 
    3400  15.764013792395603630    15.764014    15.764014    288.05852   -155.14349    508.87371    510.44535   -1695.9939    215.93836 
    3410  15.763235430694109596    15.763235    15.763235    627.37782     269.5158    1049.4874    563.13024   -1695.9964    216.39553 
    3420  15.762824608611145649    15.762825    15.762825    619.30949     375.1826    1067.4695    415.27641   -1696.1256    220.78876 
    3430  15.762783886203891370    15.762784    15.762784     504.4473      294.183    839.55232    379.60658   -1696.1703    222.55554 
    3440  15.763051858072079980    15.763052    15.763052    501.68109    233.83239    695.68281    575.52807   -1695.9471     215.9969 
    3450  15.763619317110432405    15.763619    15.763619    546.94127    230.43356    653.47199    756.91826   -1695.4912    202.19051 
    3460  15.764493640246126205    15.764494    15.764494    353.68865    112.22558    428.24922    520.59114   -1695.0576    189.05254 
    3470  15.765547109469942200    15.765547    15.765547    -249.9224   -290.62131   -175.17343   -283.97245   -1694.9275    185.32933 
    3480  15.766431295314472294    15.766431    15.766431   -1056.0628   -909.41243   -941.97609   -1316.7998   -1695.1764    193.39388 
    3490  15.766698825277659424    15.766699    15.766699   -1556.2794   -1389.6574    -1364.771   -1914.4097   -1695.5961    206.77964 
    3500  15.766086172458583903    15.766086    15.766086   -1310.6511   -1303.9641   -1061.9009   -1566.0882   -1695.8541    215.14837 
    3510  15.764751080927288385    15.764751    15.764751   -327.04595   -520.22402    -117.0161   -343.89772    -1695.781    213.23798 
    3520  15.763258254909263911    15.763258    15.763258    880.72522    592.74327    957.94139     1091.491   -1695.5272    205.72841 
    3530  15.762287151638769700    15.762287    15.762287    1627.9678    1368.2105    1577.6474    1938.0454   -1695.4232    202.87057 
    3540  15.762249955438209170     15.76225     15.76225    1511.6375    1320.2941    1429.7459    1784.8726   -1695.6594    210.56479 
    3550  15.763071494207389733    15.763071    15.763071      664.792    525.16129    630.40163    838.81308   -1696.0952    224.46025 
    3560  15.764269256043892398    15.764269    15.764269   -350.11833   -429.88602    -337.3109   -283.15807   -1696.3781    233.63648 
    3570  15.765270525421904324    15.765271    15.765271   -927.59471   -915.70623   -887.00791      -980.07   -1696.2428    229.83847 
    3580  15.765750324726989007     15.76575     15.76575   -817.66048   -723.00607   -710.70533   -1019.2701   -1695.7305    214.31124 
    3590  15.765767321511713561    15.765767    15.765767   -283.28573   -166.71523   -46.655373   -636.48658   -1695.1757    197.43103 
    3600  15.765615007728182917    15.765615    15.765615    128.92756    224.99074    465.64734   -303.85541   -1694.9668    191.26958 
    3610  15.765519850721416262     15.76552     15.76552    52.893807    149.70335    332.14634   -323.16827   -1695.2462    200.27818 
    3620  15.765442264072198952    15.765442    15.765442   -390.93012   -269.65581   -309.40187   -593.73267   -1695.7922     217.5881 
    3630  15.765145353378397175    15.765145    15.765145    -715.6493   -624.20584   -789.84562   -732.89644   -1696.1916    230.37178 
    3640  15.764462763731849293    15.764463    15.764463   -498.64694   -541.91336   -530.23571   -423.79175   -1696.1567    229.67275 
    3650  15.763527464445139969    15.763527    15.763527    244.01286    22.567631    410.07125    299.39971   -1695.7175    216.40575 
    3660  15.762757658007874539    15.762758    15.762758     1057.286    730.01323    1381.8708     1059.974   -1695.1597    199.43784 
    3670  15.762602686358725634    15.762603    15.762603    1403.4697    1073.6072    1731.4692    1405.3328   -1694.8117    188.95562 
    3680  15.763245868621908130    15.763246    15.763246    1051.8046    751.03986    1297.8434    1106.5306   -1694.8583    190.71204 
    3690  15.764479335549633987    15.764479    15.764479    211.44661   -57.371235    406.24517    285.46588   -1695.2552    203.36246 
    3700  15.765823088544770769    15.765823    15.765823    -654.6338   -829.04839    -459.8926   -674.96043   -1695.7655    219.57709 
    3710  15.766784871956364356    15.766785    15.766785    -1153.755   -1148.4239    -973.9921   -1338.8489   -1696.1211    231.01813 
    3720  15.767081426255586507    15.767081    15.767081   -1169.9602   -997.55403   -1060.2395   -1452.0872   -1696.1915    233.60483 
    3730  15.766705751797310597    15.766706    15.766706   -835.63137   -638.48425   -797.41861   -1070.9912   -1696.0237     228.7764 
    3740  15.765853792038683423    15.765854    15.765854   -364.12032   -289.86076   -335.22692   -467.27328   -1695.7674    221.18311 
    3750  15.764802492026682046    15.764802    15.764802    85.023716    20.895167    156.65095    77.525028   -1695.5715    215.45842 
    3760  15.763815288221483257    15.763815    15.763815    425.94477    316.17656    547.25291    414.40483   -1695.4941    213.40826 
    3770  15.763090220014934317     15.76309     15.76309    619.41119    519.97509    787.31951    550.93899    -1695.475    213.17051 
    3780  15.762737717085041567    15.762738    15.762738    669.98699    547.37678    896.98582    565.59838   -1695.4141    211.63229 
    3790  15.762784808259443281    15.762785    15.762785    626.72572       443.45     916.8118    519.91537   -1695.2812     207.8509 
    3800  15.763202487888602121    15.763202    15.763202    529.12002    298.07101    846.55454     442.7345   -1695.1442    203.93374 
    3810  15.763926369690405949    15.763926    15.763926    346.07588    83.805025    640.43519    313.98743   -1695.1115    203.25248 
    3820  15.764841589353695284    15.764842    15.764842    28.988347   -282.54214    280.44318    89.064004   -1695.2395    207.56704 
    3830  15.765760788316757868    15.765761    15.765761   -375.38429   -740.78776   -155.95888   -229.40621   -1695.4549    214.60922 
    3840  15.766453554077024535    15.766454    15.766454   -708.48146   -1057.1521   -507.35937   -560.93289   -1695.5829    218.95113 
    3850  15.766734429656297678    15.766734    15.766734   -818.38053   -1032.1279   -644.43758   -778.57608   -1695.5138    217.17153 
    3860  15.766544692583467580    15.766545    15.766545   -697.90199   -719.92783   -574.66848   -799.10964   -1695.3428    212.21868 
    3870  15.765955245065637058    15.765955    15.765955   -475.36721    -393.0106     -391.617   -641.47402   -1695.2956    211.09867 
    3880  15.765097821537233713    15.765098    15.765098   -249.51395   -241.80702   -149.99875   -356.73608   -1695.5064    217.99987 
    3890  15.764111993816035451    15.764112    15.764112    24.179372   -159.62766    163.80745    68.358319   -1695.8891     230.2526 
    3900  15.763166211651848059    15.763166    15.763166    435.85177    108.26223    550.45121    648.84188   -1696.2059    240.48299 
    3910  15.762500242088975710      15.7625      15.7625    930.11895    634.81718    909.86234    1245.6773   -1696.2412    241.97758 
    3920  15.762389809415736863     15.76239     15.76239    1276.7337    1177.9769    1076.3435    1575.8807   -1695.9337    232.81074 
    3930  15.763018792373429733    15.763019    15.763019    1230.3805    1344.9484    939.41076    1406.7824   -1695.4051    216.74019 
    3940  15.764344188096595545    15.764344    15.764344    690.75564    880.94385    482.68164    708.64143   -1694.8945     201.1958 
    3950  15.766043020840889710    15.766043    15.766043   -236.24432   -137.00991   -222.13748   -349.58556   -1694.6376    193.52576 
    3960  15.767578267558850058    15.767578    15.767578   -1243.4259   -1308.0198   -988.77384   -1433.4841   -1694.7336    196.83854 
    3970  15.768379056529177262    15.768379    15.768379   -1906.2939   -2093.0857   -1529.6711   -2096.1249   -1695.0777     207.8703 
    3980  15.768081929666664109    15.768082    15.768082   -1882.0066   -2085.7559   -1570.9239     -1989.34   -1695.4353     219.3194 
    3990  15.766719997595730618     15.76672     15.76672   -1117.4318   -1223.5321   -1011.1756   -1117.5878   -1695.6132    225.18022 
    4000  15.764745271913724878    15.764745    15.764745    91.734643    167.48046    -18.26472    125.98819   -1695.5739    224.31319 
    4010  15.762855046968734740    15.762855    15.762855    1251.6089    1502.0855    1037.9396    1214.8015   -1695.4163    219.79836 
    4020  15.761709662377597851     15.76171     15.76171    1922.8804    2203.4517    1764.3555    1800.8339   -1695.2855    216.11792 
    4030  15.761683067481172316    15.761683    15.761683    1890.3644    1985.1432    1883.8245    1802.1254   -1695.2856    216.47038 
    4040  15.762742341893314801    15.762742    15.762742    1197.8505     971.3367    1333.7176    1288.4972   -1695.4137    220.77818 
    4050  15.764477794506275288    15.764478    15.764478    117.88868   -369.88659    332.66043    390.89221   -1695.5711    226.00898 
    4060  15.766264351872433025    15.766264    15.766264   -932.02768   -1465.6231   -689.63836   -640.82158     -1695.65      228.838 
    4070  15.767501288845558349    15.767501    15.767501   -1569.4302   -1957.0458    -1324.294   -1426.9507   -1695.6068    227.88235 
    4080  15.767828273846300036    15.767828    15.767828   -1627.5365   -1832.7897   -1385.4488   -1664.3711   -1695.4705     224.0178 
    4090  15.767220756150113203    15.767221    15.767221    -1164.413   -1272.8318   -907.98332   -1312.4239    -1695.308    219.30949 
    4100  15.765955368820186777    15.765955    15.765955   -381.67149   -481.64878   -89.101887    -574.2638    -1695.183    215.75953 
    4110  15.764489538654254730     15.76449     15.76449    443.27484     332.8341     751.6726    245.31781   -1695.1283     214.4023 
    4120  15.763299031380570980    15.763299    15.763299    1038.2266    950.41956    1290.9998    873.26048   -1695.1399    215.11602 
    4130  15.762721094958308754    15.762721    15.762721    1215.3728    1177.2524    1335.3884    1133.4775   -1695.1998     217.3284 
    4140  15.762849798551487268     15.76285     15.76285    948.39438    952.00664    911.69594    981.48057   -1695.2901    220.48259 
    4150  15.763527221364807218    15.763527    15.763527    425.46051    433.35596    304.84726    538.17831   -1695.3778     223.5527 
    4160  15.764452943062828183    15.764453    15.764453   -51.880843   -81.885361   -117.19704    43.439874    -1695.417    225.12173 
    4170  15.765351280384146904    15.765351    15.765351   -305.00859   -390.33173    -213.0382   -311.65584   -1695.4012    224.99111 
    4180  15.766070359122583255     15.76607     15.76607   -388.96054   -501.68594   -149.64109   -515.55457   -1695.3805    224.70682 
    4190  15.766555428040710751    15.766555    15.766555   -449.87627    -518.0696   -160.86465   -670.69456   -1695.3848    225.19757 
    4200  15.766772352660623824    15.766772    15.766772   -515.50786   -475.25712   -262.17333   -809.09312   -1695.3592    224.75495 
    4210  15.766691852578567534    15.766692    15.766692   -479.62234   -364.16596   -250.37662   -824.32444   -1695.2196    220.76467 
    4220  15.766342260096324779    15.766342    15.766342   -287.05216   -230.02537   -8.1303392   -623.00077   -1694.9785    213.61668 
    4230  15.765835272389328026    15.765835    15.765835    -45.47531   -160.33294    308.89333   -284.98633    -1694.787     207.9998 
    4240  15.765307466602873632    15.765307    15.765307    91.160339   -185.84811    454.29856    5.0305621   -1694.8225    209.43095 
    4250  15.764838242441799210    15.764838    15.764838    94.184768   -230.83716    369.68716     143.7043   -1695.1329    219.41057 
    4260  15.764434447870058875    15.764434    15.764434    73.816888   -170.69589    221.38297    170.76358   -1695.5915    234.01543 
    4270  15.764089564321116299     15.76409     15.76409    148.87601    59.921501    204.74465    181.96187   -1695.9803    246.46928 
    4280  15.763848130242015699    15.763848    15.763848    336.30892     401.3892     378.2028    229.33477   -1696.0975    250.49615 
    4290  15.763815291652843342    15.763815    15.763815    556.45234     703.6088    654.69671    311.05152   -1695.8438    242.99639 
    4300  15.764112017977437219    15.764112    15.764112    692.31252    823.39117    856.41036    397.13601   -1695.2987    226.41938 
    4310  15.764807646699733112    15.764808    15.764808    625.25279    683.87016    780.82938    411.05883    -1694.703    208.23923 
    4320  15.765852218633970239    15.765852    15.765852    268.35788     264.9108    322.79902    217.36383   -1694.3033    196.12611 
    4330  15.767031362050680343    15.767031    15.767031   -347.01329   -385.49369   -388.38527   -267.16091   -1694.2154    193.69283 
    4340  15.767990699207160787    15.767991    15.767991   -1006.1874    -1095.576   -1014.7695   -908.21681   -1694.4284    200.62499 
    4350  15.768359764588417704     15.76836     15.76836   -1403.3975   -1591.3033   -1241.4523    -1377.437   -1694.8704    214.68863 
    4360  15.767923412528254801    15.767923    15.767923   -1325.9006   -1615.2738    -974.1509   -1388.2772   -1695.4429    232.81905 
    4370  15.766739505868143212     15.76674     15.76674   -769.05981   -1082.5111   -330.03243   -894.63591   -1696.0079    250.73139 
    4380  15.765138403700380110    15.765138    15.765138    78.692755   -170.97902    475.45694   -68.399654   -1696.3517    261.79921 
    4390  15.763612218712259150    15.763612    15.763612    933.12132    761.04468    1222.5977    815.72153   -1696.2493    259.02639 
    4400  15.762650496626861241     15.76265     15.76265    1531.0857    1392.8532    1737.2113    1463.1925   -1695.6677    241.35518 
    4410  15.762587872521709897    15.762588    15.762588    1681.6418    1537.1602    1872.7488    1635.0164   -1694.8845    217.37408 
    4420  15.763493823278803774    15.763494    15.763494    1266.6385    1085.7686    1499.7707    1214.3764   -1694.3249    200.28333 
    4430  15.765111504913784657    15.765112    15.765112     326.4189    97.923959     603.1022    278.23055   -1694.2615    198.59401 
    4440  15.766891216070108683    15.766891    15.766891   -842.70257   -1086.2285   -581.86654    -860.0127   -1694.6577     211.2132 
    4450  15.768165071428430934    15.768165    15.768165   -1762.7391   -1967.4318   -1568.3606   -1752.4249   -1695.2219    229.09741 
    4460  15.768419460177543812    15.768419    15.768419   -1994.3995   -2136.4121   -1826.7196   -2020.0667   -1695.5768    240.48611 
    4470  15.767541618153501304    15.767542    15.767542   -1357.6237   -1463.3011   -1097.6211   -1511.9488   -1695.4725    237.59021 
    4480  15.765912561658964819    15.765913    15.765913   -83.335899    -215.6094    356.92262   -391.32093   -1694.9694    222.29661 
    4490  15.764263463685594502    15.764263    15.764263    1205.5002    996.75275    1762.5018    857.24596   -1694.4395    206.17984 
    4500  15.763319412658917784    15.763319    15.763319    1824.4863    1561.0807     2278.875    1633.5031    -1694.328    203.04755 
    4510  15.763420121165802712     15.76342     15.76342    1484.8407      1272.07    1612.0985    1570.3536   -1694.8287    218.91968 
    4520  15.764365526905869785    15.764366    15.764366    480.05489     433.7682    231.93218    774.46428   -1695.6963    246.20603 
    4530  15.765584940445041440    15.765585    15.765585   -537.52305    -401.1322    -980.0672   -231.36977   -1696.3473    266.81512 
    4540  15.766503248680461269    15.766503    15.766503   -1008.1747   -786.85448   -1361.3984   -876.27121   -1696.2681    264.76422 
    4550  15.766853075342758927    15.766853    15.766853   -812.24714   -635.81344   -858.60179   -942.32619   -1695.4484    239.68683 
    4560  15.766741174982300322    15.766741    15.766741   -272.70405   -237.28366    46.902389   -627.73087    -1694.433    208.47746 
    4570  15.766467677571259998    15.766468    15.766468    134.53252   -14.737053     692.4013   -274.06667   -1693.8998    192.21054 
    4580  15.766259943746820937     15.76626     15.76626     119.4679   -209.98875    667.22605   -98.833611   -1694.1412    199.99532 
    4590  15.766112292515256144    15.766112    15.766112   -233.99749   -688.59047    91.261091   -104.66309   -1694.8861    223.44296 
    4600  15.765835387075512131    15.765835    15.765835   -538.37433   -1022.8927   -483.89451   -108.33574   -1695.5489    244.38141 
    4610  15.765272114909569368    15.765272    15.765272   -399.97578   -820.06068   -499.31479    119.44811    -1695.678    248.75798 
    4620  15.764512302454960491    15.764512    15.764512     249.3529   -29.433524    150.51522    626.97702   -1695.2782    236.70715 
    4630  15.763921628596630597    15.763922    15.763922    1012.7475    926.86477    962.26493    1149.1128   -1694.7667    221.16602 
    4640  15.763916645364419722    15.763917    15.763917    1289.4594    1394.6468     1206.877    1266.8545   -1694.5988    216.27425 
    4650  15.764637670326441921    15.764638    15.764638    803.28244     1041.123    591.79887    776.92541    -1694.902    226.00607 
    4660  15.765803969725562084    15.765804    15.765804   -129.94188    139.09532   -450.20965   -78.711299   -1695.4067    242.01861 
    4670  15.766892174876812049    15.766892    15.766892   -864.89411   -670.28164   -1150.3194   -774.08132   -1695.6797    250.86733 
    4680  15.767492300440174802    15.767492    15.767492    -966.1915   -882.23864   -1084.5348   -931.80102   -1695.4705    244.74375 
    4690  15.767545655139128868    15.767546    15.767546   -545.53126   -508.19868   -496.06149    -632.3336   -1694.9239    228.11275 
    4700  15.767282079500956726    15.767282    15.767282     -104.433   -36.621515    13.018369   -289.69587   -1694.4687    214.29746 
    4710  15.766945832039130693    15.766946    15.766946   -32.487752    47.657431    65.909235   -211.02992   -1694.4398    213.70729 
    4720  15.766584982744515031    15.766585    15.766585   -238.19369   -255.07862   -185.40662   -274.09582   -1694.7811    224.62359 
    4730  15.766100738561721784    15.766101    15.766101   -298.28716   -523.07521   -270.62872   -101.15756   -1695.1366    235.99852 
    4740  15.765472669937054206    15.765473    15.765473    34.308775   -406.63474    76.764606    432.79646   -1695.2148    238.77771 
    4750  15.764887555142623299    15.764888    15.764888    532.64517     24.39542    610.37324    963.16686   -1695.0439    233.81797 
    4760  15.764613875683089361    15.764614    15.764614    719.16304    372.43995    821.18176     963.8674   -1694.8869    229.28537 
    4770  15.764745225371292747    15.764745    15.764745    369.66226     349.1434    462.39741    297.44596   -1694.9302    230.95955 
    4780  15.765084570628694394    15.765085    15.765085   -224.52341    77.819511    -165.0584   -586.33134   -1695.0794    235.92912 
    4790  15.765306746521314807    15.765307    15.765307   -517.32335   -74.397529   -476.52938   -1001.0432   -1695.0802    236.29364 
    4800  15.765255641093766314    15.765256    15.765256    -223.8699    111.96416   -177.80822   -605.76565   -1694.8089    228.20242 
    4810  15.765095500802956963    15.765096    15.765096    406.58091     487.0767    457.55502    275.11101   -1694.4316    216.80881 
    4820  15.765171192185048810    15.765171    15.765171    820.18264    653.28892    882.27172    924.98727    -1694.302    213.09816 
    4830  15.765703724532993846    15.765704    15.765704    634.02088    312.84972    758.25338    830.95952   -1694.6837     225.2673 
    4840  15.766579824948415478     15.76658     15.76658    -96.31677   -473.06178     162.6875    21.423964   -1695.4831    250.43586 
    4850  15.767385599857043132    15.767386    15.767386   -945.19519   -1313.9108   -524.17442   -997.50033   -1696.2178    273.63703 
    4860  15.767648354895285934    15.767648    15.767648   -1379.9555   -1740.2658   -841.30874   -1558.2921   -1696.3218    277.26215 
    4870  15.767136217317133884    15.767136    15.767136   -1067.9269   -1473.5251   -491.78729   -1238.4682   -1695.5775    254.50764 
    4880  15.766040073535476651     15.76604     15.76604    -95.44495   -581.28093    450.31571   -155.36963   -1694.3204    215.78013 
    4890  15.764915003985791486    15.764915    15.764915    1010.2775     481.4072    1496.9094    1052.5159   -1693.2678    183.37038 
    4900  15.764377784836696605    15.764378    15.764378    1558.6888    1084.8018    1974.5624    1616.7023   -1693.0805     177.8171 
    4910  15.764724020750492173    15.764724    15.764724    1178.6315    856.05151    1515.3692    1164.4739   -1693.9111    203.87875 
    4920  15.765730152657763341     15.76573     15.76573    122.00609   -15.602364    417.11321   -35.492585   -1695.2542    245.91073 
    4930  15.766799885659686709      15.7668      15.7668   -915.33967   -895.08883   -567.73865   -1283.1915   -1696.2767    278.05906 
    4940  15.767352555566763073    15.767353    15.767353   -1311.6351   -1170.3832   -860.45558   -1904.0664   -1696.4044    282.43778 
    4950  15.767168548184915977    15.767169    15.767169   -932.05863      -696.75   -475.73441   -1623.6915   -1695.6784     260.2695 
    4960  15.766463323571841215    15.766463    15.766463   -141.97416    123.34997    124.01597   -673.28841   -1694.6205    227.74548 
    4970  15.765682724575478701    15.765683    15.765683     523.9346    704.52737    481.28214     385.9943     -1693.82    203.17788 
    4980  15.765203555880122011    15.765204    15.765204    739.10643    753.26318    453.80161    1010.2545   -1693.6134    197.04046 
    4990  15.765150548179125423    15.765151    15.765151     545.4349    441.11327    221.19597    973.99545   -1693.9852    208.87277 
    5000  15.765417294905738288    15.765417    15.765417    210.22144    141.96248    28.649194    460.05265   -1694.6463    229.71737 
    5010  15.765814602059370131    15.765815    15.765815   -17.095164    79.027563   -32.165687   -98.147367   -1695.2353    248.35693 
    5020  15.766211066583448286    15.766211    15.766211   -56.879983    215.43082   -33.478185   -352.59258   -1695.5342     258.0062 
    5030  15.766577355729509691    15.766577    15.766577   -28.310963    319.84171   -110.88736   -293.88724   -1695.5547    259.00956 
    5040  15.766921414200060880    15.766921    15.766921   -110.82984    146.99756   -323.32077    -156.1663   -1695.4482    256.06164 
    5050  15.767193037354694241    15.767193    15.767193   -335.51379   -314.00171   -579.54291   -112.99674   -1695.3354    252.90643 
    5060  15.767269169260135442    15.767269    15.767269   -535.04574   -785.46379   -682.30079   -137.37263   -1695.2021    249.10687 
    5070  15.767044770123252562    15.767045    15.767045   -514.50429    -935.2114   -487.07762   -121.22387    -1694.947    241.51063 
    5080  15.766538106463105606    15.766538    15.766538   -233.61964   -640.84913   -61.090203    1.0804058   -1694.5247    228.70557 
    5090  15.765912236680767577    15.765912    15.765912    180.92652   -77.300329    377.21996    242.85991   -1694.0498     214.2566 
    5100  15.765403681536414027    15.765404    15.765404      539.977    409.75694    657.51254    552.66151   -1693.7571    205.45272 
    5110  15.765214102946405461    15.765214    15.765214    676.52325    524.79781    721.31536    783.45659   -1693.8272    207.91902 
    5120  15.765414564665743313    15.765415    15.765415    494.77046     171.9595    572.85707    739.49481   -1694.2389     221.0024 
    5130  15.765895498220084292    15.765895    15.765895    58.054496   -456.45912    269.96375    360.65885   -1694.7837    238.24481 
    5140  15.766408642463225931    15.766409    15.766409   -376.80799   -948.03736   -59.073866   -123.31275    -1695.215    251.98994 
    5150  15.766712163822091952    15.766712    15.766712   -521.53224   -968.56475   -224.78012   -371.25186   -1695.3916    257.83696 
    5160  15.766727006165471181    15.766727    15.766727   -317.11727   -523.58371   -128.62652   -299.14158   -1695.3323    256.35131 
    5170  15.766565414432776038    15.766565    15.766565   -5.4545215    58.137173    57.116531   -131.61727   -1695.1753    251.82275 
    5180  15.766398360711169957    15.766398    15.766398    119.19123    402.80502    51.745233   -96.976545   -1695.0546    248.41038 
    5190  15.766297421848154414    15.766297    15.766297    20.795623    388.63821   -154.44146   -171.80989   -1694.9627    245.88552 
    5200  15.766216019039644536    15.766216    15.766216   -60.914127    206.07369   -258.84101   -129.97506   -1694.7704    240.23616 
    5210  15.766117001254706054    15.766117    15.766117    90.009232    92.617023    22.345369     155.0653   -1694.4336    230.08787 
    5220  15.766084615964576443    15.766085    15.766085    373.61633    52.042193    578.36065    490.44616   -1694.1331    221.06012 
    5230  15.766266204833144116    15.766266    15.766266    426.10479   -108.00441    871.92936    514.38942   -1694.1509    221.91152 
    5240  15.766677582604366137    15.766678    15.766678     20.73835   -489.60258    462.18921    89.628418   -1694.5792    235.52207 
    5250  15.767088303069897393    15.767088    15.767088   -607.87335   -913.13071   -402.99605    -507.4933   -1695.1452    253.42967 
    5260  15.767155346354680745    15.767155    15.767155   -924.14365   -1019.4525   -936.91376   -816.06469   -1695.3862    261.26205 
    5270  15.766714366776241718    15.766714    15.766714   -594.97877   -601.61347    -609.1963   -574.12653   -1695.0561    251.34774 
    5280  15.765957843908431357    15.765958    15.765958    203.67793    185.29969     336.1896      89.5445   -1694.3505    229.75183 
    5290  15.765333858012457569    15.765334    15.765334    936.70714    928.94405    1140.8848    740.29254   -1693.7588    211.67477 
    5300  15.765248086097436442    15.765248    15.765248    1123.7129    1203.7137    1258.8339    908.59107   -1693.7071    210.35215 
    5310  15.765798070242720286    15.765798    15.765798    665.61375    832.19918    741.02314    423.61894   -1694.2591    227.78508 
    5320  15.766720706078036329    15.766721    15.766721   -127.02784    17.636078    22.208233   -420.92784   -1695.0613    253.02395 
    5330  15.767567887777214963    15.767568    15.767568   -774.70098   -778.22906   -472.62739   -1073.2465   -1695.5917    269.85764 
    5340  15.767975723385747600    15.767976    15.767976   -944.63002   -1111.3459   -585.44029   -1137.1039   -1695.5457     268.7978 
[...]
    8640  15.768736515993182934    15.768737    15.768737    48.947729    254.55189   -309.12257    201.41387   -1694.1919    311.08649 
    8650  15.769046833853696654    15.769047    15.769047   -655.66202   -399.58271   -854.12314   -713.28021   -1694.8117    330.54861 
    8660  15.769006782841023195    15.769007    15.769007   -684.92159   -662.87955   -630.31631   -761.56892   -1694.6007    324.20416 
    8670  15.768601993105846759    15.768602    15.768602   -80.052158   -317.02107     188.4332    -111.5686   -1693.6173    293.85004 
    8680  15.768168616942563887    15.768169    15.768169    653.93561    327.65535    1028.0229    606.12856   -1692.4933    259.10788 
    8690  15.768111126308539838    15.768111    15.768111    958.57587    703.61207    1304.1875    867.92805   -1691.9578    242.62779 
    8700  15.768593209288724211    15.768593    15.768593    631.05831    489.85525    838.20995    565.10973   -1692.2822    252.85038 
    8710  15.769426813885175420    15.769427    15.769427   -78.384594   -138.07016   -35.240652   -61.842968   -1693.1312    279.38595 
    8720  15.770211912709184432    15.770212    15.770212   -710.04087   -692.66483   -775.20174   -662.25604   -1693.8826    302.91738 
    8730  15.770594527701760512    15.770595    15.770595    -912.2447   -767.95165   -1033.5001    -935.2823   -1694.0863    309.44816 
    8740  15.770462666379994943    15.770463    15.770463   -657.33653   -384.51429   -843.66973   -743.82557   -1693.7251    298.42026 
    8750  15.769959308883350957    15.769959    15.769959   -229.85236    57.259242   -512.59531     -234.221   -1693.1388    280.38802 
    8760  15.769326640203718881    15.769327    15.769327    73.666523    232.19521   -283.40576    272.21012   -1692.7307      267.879 
    8770  15.768742272400478655    15.768742    15.768742    188.52764     168.7678   -131.28494    528.10007   -1692.6866    266.67241 
    8780  15.768280433407888097     15.76828     15.76828    252.88858    121.70588     96.19703    540.76282   -1692.8899    273.15177 
    8790  15.767985494909639854    15.767985    15.767985      419.666     263.7457    445.55788    549.69443    -1693.107    280.07215 
    8800  15.767952524231841238    15.767953    15.767953     659.8503    463.01457    780.93532      735.601    -1693.247    284.60388 
    8810  15.768306546197099038    15.768307    15.768307    717.43082    370.68348    855.13565    926.47334   -1693.3848    289.06367 
    8820  15.769063441653745627    15.769063    15.769063    350.48555   -166.07275    461.12838      756.401   -1693.5869    295.51834 
    8830  15.770004160852810315    15.770004    15.770004   -374.57947   -883.35127   -350.84049    110.45337   -1693.7902    302.01575 
    8840  15.770717443197886709    15.770717    15.770717    -1073.703   -1338.3405   -1175.8925   -706.87605   -1693.8312    303.47552 
    8850  15.770816684628512050    15.770817    15.770817   -1292.7763   -1249.4434    -1438.274   -1190.6116   -1693.5842    295.98058 
    8860  15.770191817447535954    15.770192    15.770192   -827.04478   -693.99281   -810.54163   -976.59991   -1693.0941    280.91667 
    8870  15.769116919747030892    15.769117    15.769117    101.97377   -13.553141    412.99801   -93.523561    -1692.581    265.13382 
    8880  15.768121790080282807    15.768122    15.768122    1001.1448    486.97478    1492.7022    1023.7575   -1692.3025    256.64574 
    8890  15.767712871737597169    15.767713    15.767713    1414.3447    677.56197    1829.5039    1735.9683   -1692.3895    259.51088 
    8900  15.768115409313047337    15.768115    15.768115    1141.2792    527.87724    1326.3388    1569.6216   -1692.7787    271.75829 
    8910  15.769164317985122636    15.769164    15.769164    330.96166    64.590141    328.59136    599.70347   -1693.2767    287.38931 
    8920  15.770393286592465643    15.770393    15.770393   -606.00243   -573.72931   -668.00966   -576.26832   -1693.6904    300.42808 
    8930  15.771267050250472153    15.771267    15.771267   -1267.3983   -1131.8037   -1311.6901   -1358.7011   -1693.9148    307.59655 
    8940  15.771409423015875007    15.771409    15.771409   -1460.2151   -1330.6324   -1486.0413   -1563.9715   -1693.9307    308.27954 
    8950  15.770718056836003029    15.770718    15.770718   -1155.6649   -993.91035   -1183.7218   -1289.3625   -1693.7623    303.21145 
    8960  15.769383148376023840    15.769383    15.769383   -393.57747   -171.35361   -414.29364   -595.08516   -1693.4501    293.66929 
    8970  15.767855120450395390    15.767855    15.767855    640.64941    822.34025    654.78755    444.82044   -1693.0692    282.00118 
    8980  15.766726916153885441    15.766727    15.766727    1545.6464    1517.7031    1591.0393    1528.1968   -1692.7481    272.19844 
    8990  15.766503270893874600    15.766503    15.766503    1864.3613    1554.2682    1901.8174    2136.9983   -1692.6221    268.44251 
    9000  15.767347606470853094    15.767348    15.767348    1372.2545    912.38498    1379.9124    1824.4661   -1692.7396    272.22914 
    9010  15.768963737487407428    15.768964    15.768964    254.82571   -96.635759    245.62725    615.48565   -1693.0132    280.86816 
    9020  15.770708084213818978    15.770708    15.770708   -959.91129   -1016.6998   -986.17509   -876.85893   -1693.2592    288.68124 
    9030  15.771890724008997609    15.771891    15.771891   -1696.9911   -1469.4265   -1777.2223   -1844.3245   -1693.3026    290.22208 
    9040  15.772098332286510924    15.772098    15.772098   -1677.5739   -1299.5537   -1848.3275   -1884.8404   -1693.1224    284.79992 
    9050  15.771347513229684978    15.771348    15.771348   -1069.1018   -649.47377   -1319.0314   -1238.8002   -1692.9275    278.89624 
    9060  15.769990080321573345     15.76999     15.76999   -288.73965    162.75461   -581.25154   -447.72202   -1693.0012     281.3368 
    9070  15.768479637136158189     15.76848     15.76848    348.29267    872.58016    38.028792    134.26906   -1693.3912     293.6155 
    9080  15.767193780851995299    15.767194    15.767194    817.18686    1358.9611    531.24731    561.35222    -1693.791    306.21191 
    9090  15.766411982878855369    15.766412    15.766412    1221.4761    1564.1363    1035.5615    1064.7307   -1693.7815    306.09608 
    9100  15.766363012750987949    15.766363    15.766363    1505.3622    1423.4964    1505.7452     1586.845   -1693.2319    289.19226 
    9110  15.767189317879275023    15.767189    15.767189    1387.8068    906.67355     1605.591    1651.1558   -1692.5055    266.76826 
    9120  15.768795246628146245    15.768795    15.768795     611.8187    90.712173     924.6135    820.13044   -1692.2115    257.75749 
    9130  15.770717847673381584    15.770718    15.770718   -691.43378   -837.50531   -506.05453    -730.7415   -1692.6528    271.61286 
    9140  15.772213192956428429    15.772213    15.772213   -1926.5301   -1610.9591   -1976.4855   -2192.1455   -1693.5333    299.14973 
    9150  15.772594669986148119    15.772595    15.772595    -2373.633   -1875.6727   -2562.2529   -2682.9733   -1694.2191    320.63455 
    9160  15.771631170060635085    15.771631    15.771631   -1707.3828   -1350.3262   -1848.7397   -1923.0825   -1694.2549    321.89442 
    9170  15.769719342697689157    15.769719    15.769719   -257.91372   -163.15421     -235.326   -375.26094   -1693.6683    303.81488 
    9180  15.767690414532969712     15.76769     15.76769     1218.874    1073.3355    1385.0309    1198.2555   -1692.8608    278.89535 
    9190  15.766383140146455588    15.766383    15.766383    2050.0112    1679.0053    2260.8524    2210.1758   -1692.2627    260.48511 
    9200  15.766264662464871904    15.766265    15.766265    1988.0916    1421.8187    2160.5586    2381.8974   -1692.0931    255.35512 
    9210  15.767289099626808024    15.767289    15.767289    1185.5591    605.26219    1277.6284    1673.7868   -1692.3487    263.41243 
    9220  15.768985566437109469    15.768986    15.768986     14.63826   -279.52751     26.13265    297.30964   -1692.8834    280.15655 
    9230  15.770676369406388062    15.770676    15.770676   -1072.6926   -918.63348   -1104.0165   -1195.4278    -1693.472     298.6168 
    9240  15.771740302584987603     15.77174     15.77174   -1666.3177   -1229.8884    -1696.944   -2072.1206    -1693.874    311.29252 
    9250  15.771847836219656358    15.771848    15.771848   -1527.0743   -1167.2797   -1507.6472   -1906.2959   -1693.9096    312.56714 
    9260  15.771092832710168707    15.771093    15.771093   -704.62575   -642.81867   -594.85436   -876.20423   -1693.5408    301.25897 
    9270  15.769953311271301288    15.769953    15.769953    396.06372     236.5749    563.81135     387.8049   -1692.9445    282.88478 
    9280  15.769053136864544129    15.769053    15.769053    1158.0614    998.47451    1305.2139    1170.4957   -1692.4661    268.17819 
    9290  15.768815742457469753    15.768816    15.768816    1142.6219    1120.9323    1252.3817    1054.5518   -1692.3918    266.01272 
    9300  15.769225659240191817    15.769226    15.769226    419.02057    513.85805    539.72488     203.4788   -1692.7327    276.73841 
    9310  15.769873237209989014    15.769873    15.769873   -490.45304   -383.27244    -328.3808   -759.70587   -1693.2495    292.94139 
    9320  15.770247527941963384    15.770248    15.770248   -1012.1987   -974.28183   -823.76991   -1238.5445   -1693.6577    305.78501 
    9330  15.770057689915709886    15.770058    15.770058   -887.80216   -953.92956   -724.65006   -984.82685   -1693.7899    310.04962 
    9340  15.769377259919139078    15.769377    15.769377   -278.37571   -452.12951    -248.6896   -134.30802   -1693.6386     305.5023 
    9350  15.768552282721554292    15.768552    15.768552    408.98396    149.37706    163.35381    914.22099   -1693.3067    295.34049 
    9360  15.767973802863945565    15.767974    15.767974    844.99451     528.5787    289.66383     1716.741   -1692.9162    283.35563 
    9370  15.767890962126910992    15.767891    15.767891    937.98282    571.20583    255.57362     1987.169   -1692.5728    272.82355 
    9380  15.768355601719592940    15.768356    15.768356    767.86684    331.66401    271.07939    1700.8571    -1692.376    266.83819 
    9390  15.769264747796581716    15.769265    15.769265    434.29688   -63.654848    336.06319    1030.4823   -1692.3969    267.61608 
    9400  15.770415241524686323    15.770415    15.770415   -60.981939   -532.17721     165.9479    183.28349   -1692.6543    275.75091 
    9410  15.771509654172058745     15.77151     15.77151   -739.87012   -1052.4801   -484.14057   -682.98963   -1693.1163     290.2585 
    9420  15.772155999559270612    15.772156    15.772156   -1433.3746   -1508.1739   -1402.3825   -1389.5674   -1693.6609    307.33775 
    9430  15.771971592674939089    15.771972    15.771972   -1735.9605   -1594.2611   -1947.4322   -1666.1882   -1694.0317    319.00963 
    9440  15.770810066851218778     15.77081     15.77081   -1255.2866   -962.62581   -1555.8829    -1247.351    -1693.953    316.69155 
    9450  15.768970343974061166     15.76897     15.76897    8.6382121     434.9422   -263.14705   -145.88051   -1693.3879    299.26985 
    9460  15.767179371831357315    15.767179    15.767179    1477.6953    2013.6187    1266.1367    1153.3304   -1692.6598    276.80984 
    9470  15.766259479430907220    15.766259    15.766259    2300.2739    2799.0047    2196.0277    1905.7893   -1692.2459    264.10409 
    9480  15.766656895380029013    15.766657    15.766657     1969.066    2213.0347    2043.3927    1650.7705    -1692.404    269.12976 
    9490  15.768168755759230493    15.768169    15.768169     705.6857     599.8833    943.82876    573.34504   -1692.9618    286.55721 
    9500  15.770072923228910966    15.770073    15.770073   -729.04457   -1074.2668   -464.06497    -648.8019   -1693.4629    302.26471 
    9510  15.771554935497588801    15.771555    15.771555   -1591.5113   -1947.4177   -1482.9039   -1344.2124   -1693.5423    304.90439 
    9520  15.772124061721857657    15.772124    15.772124    -1626.444   -1812.1133   -1741.2609    -1325.958   -1693.1921    294.18578 
    9530  15.771758505180031307    15.771759    15.771759   -1098.9702   -1105.5618   -1282.5482   -908.80074     -1692.73    279.96509 
    9540  15.770761140408442458    15.770761    15.770761   -436.62309   -367.13059   -453.51031   -489.22839   -1692.5372    274.09631 
    9550  15.769519618831008501     15.76952     15.76952    108.30368    213.31766    339.51522   -227.92185   -1692.7587    281.10488 
    9560  15.768358514370401480    15.768359    15.768359     515.0447    715.16681    867.82969   -37.862385   -1693.1788    294.29428 
    9570  15.767521577863128357    15.767522    15.767522    870.02659    1194.4218    1149.3456    266.31233   -1693.3882    300.94465 
    9580  15.767215295021877353    15.767215    15.767215    1198.0134    1530.4597    1320.4093    743.17119   -1693.1419    293.44176 
    9590  15.767618211989992361    15.767618    15.767618    1349.2197    1501.7662    1375.9982    1169.8945   -1692.6188    277.32372 
    9600  15.768794815055418468    15.768795    15.768795    1039.6651    953.03508    1056.3837    1109.5764   -1692.3176    268.08309 
    9610  15.770542170774687563    15.770542    15.770542      97.1954   -59.204766    110.68866    240.10231   -1692.6281    277.84516 
    9620  15.772306884338918920    15.772307    15.772307   -1249.0666   -1195.2483   -1289.0602   -1262.8912   -1693.4592    303.80949 
    9630  15.773327086228498217    15.773327    15.773327   -2334.6801   -1971.9651   -2433.7603   -2598.3148   -1694.2729     329.2566 
    9640  15.773009306625709769    15.773009    15.773009    -2432.575    -1996.498   -2508.2441   -2792.9829   -1694.4849    335.98156 
    9650  15.771327036993362469    15.771327    15.771327      -1316.8   -1159.6198   -1266.6005   -1524.1798   -1693.8991    317.87919 
    9660  15.768933706970324593    15.768934    15.768934    503.41591    257.22273    691.35114    561.67388   -1692.8472    285.31913 
    9670  15.766865759533480684    15.766866    15.766866     2075.307    1614.8975     2314.951    2296.0725   -1691.9398    257.28456 
    9680  15.766004136212625752    15.766004    15.766004    2592.8887    2206.0721    2805.2009    2767.3933   -1691.6348    247.94542 
    9690  15.766629054236148022    15.766629    15.766629    1913.8643     1765.603    2057.9978    1917.9922   -1691.9756    258.62019 
    9700  15.768346212263466555    15.768346    15.768346    568.62414     631.3022     593.7082    480.86202   -1692.6623    280.04477 
    9710  15.770383692168412182    15.770384    15.770384   -719.68019   -603.84276   -876.73111   -678.46671   -1693.3255    300.78775 
    9720  15.771998965099061962    15.771999    15.771999   -1505.7522   -1486.3069   -1844.1366   -1186.8129   -1693.7537    314.26114 
    9730  15.772736677193357480    15.772737    15.772737   -1722.1868   -1838.8706   -2115.1084   -1212.5815   -1693.9113    319.32044 
    9740  15.772475079734334713    15.772475    15.772475   -1486.2766   -1694.7819   -1746.6734   -1017.3744   -1693.8039    316.11369 
    9750  15.771363327331625825    15.771363    15.771363   -889.43021   -1173.3619   -910.59297   -584.33575   -1693.4023     303.7453 
    9760  15.769763516350584709    15.769764    15.769764    7.3076075    -403.6455    190.45723    235.11108   -1692.7285    282.92191 
    9770  15.768203456524496175    15.768203    15.768203    1024.2079    462.57119    1303.9906    1306.0621   -1691.9805    259.81189 
    9780  15.767262172574682211    15.767262    15.767262    1757.0944    1155.8679    2049.4972    2065.9181   -1691.5464    246.45982 
    9790  15.767338244914594014    15.767338    15.767338    1726.4353    1280.7024    1993.9029    1904.7007   -1691.8342    255.51341 
    9800  15.768390155808205577     15.76839     15.76839    767.33139     592.8236    974.96948    734.20108   -1692.9244    289.48633 
    9810  15.769860543090000959    15.769861    15.769861    -677.2103    -623.9548    -588.1016   -819.57448   -1694.3084    332.61249 
    9820  15.770937873397908646    15.770938    15.770938   -1693.3176   -1563.0687   -1733.3143   -1783.5697   -1695.1062    357.55883 
    9830  15.771066496908026977    15.771066    15.771066   -1541.0649   -1490.1743    -1617.888   -1515.1324    -1694.701    345.11985 
    9840  15.770344284685794634    15.770344    15.770344   -336.39035   -451.76225   -329.83825   -227.57054   -1693.2582    300.42164 
    9850  15.769447222738484982    15.769447    15.769447    1002.0277    708.94881    1152.8106    1144.3238   -1691.6821    251.57386 
    9860  15.769118292334733056    15.769118    15.769118    1518.0119     1089.568    1809.2046     1655.263   -1690.9606    229.26118 
    9870  15.769638327954140777    15.769638    15.769638    916.02391    424.62838    1309.4562    1013.9871   -1691.4107    243.32605 
    9880  15.770664343868819657    15.770664    15.770664   -325.37644   -831.76187    139.79499   -284.16244   -1692.5511    278.85391 
    9890  15.771498386721095386    15.771498    15.771498   -1386.1043   -1901.7936   -878.14065   -1378.3787   -1693.6128    311.97708 
    9900  15.771546854879188615    15.771547    15.771547   -1677.6979   -2154.7482   -1223.5947   -1654.7506   -1694.0755    326.49564 
    9910  15.770653704248637439    15.770654    15.770654   -1103.3162   -1412.4163   -811.89345   -1085.6387   -1693.8932    320.95599 
    9920  15.769156719529203059    15.769157    15.769157    35.094277   -6.2850567    188.92855   -77.360666   -1693.3986    305.71051 
    9930  15.767711013871547721    15.767711    15.767711    1222.7761    1437.7727    1349.7974    880.75833   -1692.9756    292.69814 
    9940  15.766989614608190706     15.76699     15.76699    1923.9827    2301.7332    2052.4062    1417.8086   -1692.7813    286.78759 
    9950  15.767378839428504378    15.767379    15.767379    1807.6179    2180.9856    1892.9342    1348.9337   -1692.7424    285.67686 
    9960  15.768796491307483620    15.768796    15.768796    923.46869    1095.9231    950.17364    724.30937   -1692.7416    285.73472 
    9970  15.770727975479116978    15.770728    15.770728   -301.74561   -407.14958   -334.35499   -163.73225   -1692.7758    286.90254 
    9980  15.772469574782235213     15.77247     15.77247   -1334.8454    -1589.839   -1461.3287   -953.36863   -1692.9244    291.65556 
    9990  15.773431208656447211    15.773431    15.773431   -1821.5936   -1972.5891   -2092.7923   -1399.3995   -1693.1604    299.12182 
    9999  15.773396990328162559    15.773397    15.773397   -1712.6238   -1628.7693   -2096.4465   -1412.6556     -1693.28    302.93847 
Loop time of 5.26251 on 1 procs for 9999 steps with 250 atoms

Performance: 164.164 ns/day, 0.146 hours/ns, 1900.045 timesteps/s
99.7% CPU use with 1 MPI tasks x no OpenMP threads

MPI task timing breakdown:
Section |  min time  |  avg time  |  max time  |%varavg| %total
---------------------------------------------------------------
Pair    | 4.94       | 4.94       | 4.94       |   0.0 | 93.87
Neigh   | 0          | 0          | 0          |   0.0 |  0.00
Comm    | 0.085848   | 0.085848   | 0.085848   |   0.0 |  1.63
Output  | 0.091378   | 0.091378   | 0.091378   |   0.0 |  1.74
Modify  | 0.11611    | 0.11611    | 0.11611    |   0.0 |  2.21
Other   |            | 0.02913    |            |       |  0.55

Nlocal:    250 ave 250 max 250 min
Histogram: 1 0 0 0 0 0 0 0 0 0
Nghost:    2081 ave 2081 max 2081 min
Histogram: 1 0 0 0 0 0 0 0 0 0
Neighs:    17000 ave 17000 max 17000 min
Histogram: 1 0 0 0 0 0 0 0 0 0

Total # of neighbors = 17000
Ave neighs/atom = 68
Neighbor list builds = 0
Dangerous builds = 0

#-------------------------------------------------
Total wall time: 0:00:05
