ITEM: TIMESTEP
0
ITEM: NUMBER OF ATOMS
500
ITEM: BOX BOUNDS pp pp pp
-2.9813732202599519e-01 2.0298137322026044e+01
-2.9813732202599519e-01 2.0298137322026044e+01
-2.9813732202599519e-01 2.0298137322026044e+01
ITEM: ATOMS id type xs ys zs
1 1 2.6952e-18 2.6952e-18 2.6952e-18
2 1 0.1 0.1 2.6952e-18
3 1 0.1 2.6952e-18 0.1
4 1 2.6952e-18 0.1 0.1
5 1 0.2 2.6952e-18 2.6952e-18
8 1 0.2 0.1 0.1
11 1 0 0.2 0
13 1 0.1 0.2 0.1
15 1 0.2 0.2 0
26 1 2.6952e-18 2.6952e-18 0.2
27 1 0.1 0.1 0.2
30 1 0.2 0 0.2
36 1 0 0.2 0.2
40 1 0.2 0.2 0.2
6 1 0.3 0.1 2.6952e-18
7 1 0.3 2.6952e-18 0.1
9 1 0.4 2.6952e-18 2.6952e-18
10 1 0.4 0.1 0.1
17 1 0.3 0.2 0.1
19 1 0.4 0.2 2.6952e-18
31 1 0.3 0.1 0.2
34 1 0.4 2.6952e-18 0.2
44 1 0.4 0.2 0.2
251 1 0.5 0.1 2.6952e-18
252 1 0.5 2.6952e-18 0.1
262 1 0.5 0.2 0.1
276 1 0.5 0.1 0.2
12 1 0.1 0.3 2.6952e-18
14 1 2.6952e-18 0.3 0.1
18 1 0.2 0.3 0.1
21 1 2.6952e-18 0.4 2.6952e-18
22 1 0.1 0.4 0.1
23 1 0.2 0.4 2.6952e-18
37 1 0.1 0.3 0.2
46 1 2.6952e-18 0.4 0.2
48 1 0.2 0.4 0.2
126 1 0.1 0.5 2.6952e-18
127 1 2.6952e-18 0.5 0.1
129 1 0.2 0.5 0.1
151 1 0.1 0.5 0.2
16 1 0.3 0.3 0
20 1 0.4 0.3 0.1
24 1 0.3 0.4 0.1
25 1 0.4 0.4 2.6952e-18
41 1 0.3 0.3 0.2
50 1 0.4 0.4 0.2
261 1 0.5 0.3 2.6952e-18
271 1 0.5 0.4 0.1
286 1 0.5 0.3 0.2
128 1 0.3 0.5 2.6952e-18
130 1 0.4 0.5 0.1
153 1 0.3 0.5 0.2
401 1 0.5 0.5 0.2
376 1 0.5 0.5 2.6952e-18
28 1 0.1 2.6952e-18 0.3
29 1 2.6952e-18 0.1 0.3
33 1 0.2 0.1 0.3
38 1 0.1 0.2 0.3
51 1 2.6952e-18 2.6952e-18 0.4
52 1 0.1 0.1 0.4
53 1 0.2 2.6952e-18 0.4
56 1 2.6952e-18 0.2 0.4
58 1 0.2 0.2 0.4
64 1 0.1 2.6952e-18 0.5
65 1 2.6952e-18 0.1 0.5
67 1 0.2 0.1 0.5
69 1 0.1 0.2 0.5
32 1 0.3 0 0.3
35 1 0.4 0.1 0.3
42 1 0.3 0.2 0.3
54 1 0.3 0.1 0.4
55 1 0.4 2.6952e-18 0.4
60 1 0.4 0.2 0.4
277 1 0.5 2.6952e-18 0.3
287 1 0.5 0.2 0.3
301 1 0.5 0.1 0.4
66 1 0.3 2.6952e-18 0.5
68 1 0.4 0.1 0.5
71 1 0.3 0.2 0.5
313 1 0.5 2.6952e-18 0.5
318 1 0.5 0.2 0.5
39 1 0 0.3 0.3
43 1 0.2 0.3 0.3
47 1 0.1 0.4 0.3
57 1 0.1 0.3 0.4
61 1 2.6952e-18 0.4 0.4
62 1 0.2 0.4 0.4
152 1 2.6952e-18 0.5 0.3
154 1 0.2 0.5 0.3
176 1 0.1 0.5 0.4
70 1 2.6952e-18 0.3 0.5
72 1 0.2 0.3 0.5
74 1 0.1 0.4 0.5
189 1 0.2 0.5 0.5
188 1 2.6952e-18 0.5 0.5
45 1 0.4 0.3 0.3
49 1 0.3 0.4 0.3
59 1 0.3 0.3 0.4
63 1 0.4 0.4 0.4
306 1 0.5 0.3 0.4
296 1 0.5 0.4 0.3
426 1 0.5 0.5 0.4
155 1 0.4 0.5 0.3
177 1 0.3 0.5 0.4
190 1 0.4 0.5 0.5
73 1 0.4 0.3 0.5
75 1 0.3 0.4 0.5
323 1 0.5 0.4 0.5
76 1 2.6952e-18 2.6952e-18 0.6
77 1 0.1 0.1 0.6
78 1 0.1 2.6952e-18 0.7
79 1 2.6952e-18 0.1 0.7
80 1 0.2 2.6952e-18 0.6
83 1 0.2 0.1 0.7
86 1 2.6952e-18 0.2 0.6
88 1 0.1 0.2 0.7
90 1 0.2 0.2 0.6
81 1 0.3 0.1 0.6
82 1 0.3 2.6952e-18 0.7
84 1 0.4 2.6952e-18 0.6
85 1 0.4 0.1 0.7
92 1 0.3 0.2 0.7
94 1 0.4 0.2 0.6
326 1 0.5 0.1 0.6
327 1 0.5 2.6952e-18 0.7
337 1 0.5 0.2 0.7
204 1 0.2 0.5 0.7
87 1 0.1 0.3 0.6
89 1 2.6952e-18 0.3 0.7
93 1 0.2 0.3 0.7
96 1 2.6952e-18 0.4 0.6
97 1 0.1 0.4 0.7
98 1 0.2 0.4 0.6
202 1 2.6952e-18 0.5 0.7
201 1 0.1 0.5 0.6
451 1 0.5 0.5 0.6
205 1 0.4 0.5 0.7
203 1 0.3 0.5 0.6
91 1 0.3 0.3 0.6
95 1 0.4 0.3 0.7
99 1 0.3 0.4 0.7
100 1 0.4 0.4 0.6
336 1 0.5 0.3 0.6
346 1 0.5 0.4 0.7
101 1 2.6952e-18 2.6952e-18 0.8
102 1 0.1 0.1 0.8
103 1 0.1 2.6952e-18 0.9
104 1 2.6952e-18 0.1 0.9
105 1 0.2 2.6952e-18 0.8
108 1 0.2 0.1 0.9
111 1 2.6952e-18 0.2 0.8
113 1 0.1 0.2 0.9
115 1 0.2 0.2 0.8
106 1 0.3 0.1 0.8
107 1 0.3 2.6952e-18 0.9
109 1 0.4 2.6952e-18 0.8
110 1 0.4 0.1 0.9
117 1 0.3 0.2 0.9
119 1 0.4 0.2 0.8
362 1 0.5 0.2 0.9
352 1 0.5 2.6952e-18 0.9
351 1 0.5 0.1 0.8
229 1 0.2 0.5 0.9
227 1 2.6952e-18 0.5 0.9
226 1 0.1 0.5 0.8
112 1 0.1 0.3 0.8
114 1 2.6952e-18 0.3 0.9
118 1 0.2 0.3 0.9
121 1 2.6952e-18 0.4 0.8
122 1 0.1 0.4 0.9
123 1 0.2 0.4 0.8
230 1 0.4 0.5 0.9
228 1 0.3 0.5 0.8
476 1 0.5 0.5 0.8
116 1 0.3 0.3 0.8
120 1 0.4 0.3 0.9
124 1 0.3 0.4 0.9
125 1 0.4 0.4 0.8
361 1 0.5 0.3 0.8
371 1 0.5 0.4 0.9
131 1 2.6952e-18 0.6 2.6952e-18
132 1 0.1 0.7 2.6952e-18
133 1 0.1 0.6 0.1
134 1 2.6952e-18 0.7 0.1
135 1 0.2 0.6 2.6952e-18
138 1 0.2 0.7 0.1
156 1 2.6952e-18 0.6 0.2
157 1 0.1 0.7 0.2
160 1 0.2 0.6 0.2
136 1 0.3 0.7 2.6952e-18
137 1 0.3 0.6 0.1
139 1 0.4 0.6 2.6952e-18
140 1 0.4 0.7 0.1
161 1 0.3 0.7 0.2
164 1 0.4 0.6 0.2
406 1 0.5 0.7 0.2
382 1 0.5 0.6 0.1
381 1 0.5 0.7 2.6952e-18
141 1 2.6952e-18 0.8 2.6952e-18
142 1 0.1 0.9 2.6952e-18
143 1 0.1 0.8 0.1
144 1 2.6952e-18 0.9 0.1
145 1 0.2 0.8 2.6952e-18
148 1 0.2 0.9 0.1
166 1 2.6952e-18 0.8 0.2
167 1 0.1 0.9 0.2
170 1 0.2 0.8 0.2
416 1 0.5 0.9 0.2
392 1 0.5 0.8 0.1
391 1 0.5 0.9 2.6952e-18
146 1 0.3 0.9 2.6952e-18
147 1 0.3 0.8 0.1
149 1 0.4 0.8 2.6952e-18
150 1 0.4 0.9 0.1
171 1 0.3 0.9 0.2
174 1 0.4 0.8 0.2
158 1 0.1 0.6 0.3
159 1 2.6952e-18 0.7 0.3
163 1 0.2 0.7 0.3
178 1 2.6952e-18 0.6 0.4
179 1 0.1 0.7 0.4
180 1 0.2 0.6 0.4
191 1 0.1 0.6 0.5
192 1 2.6952e-18 0.7 0.5
194 1 0.2 0.7 0.5
429 1 0.5 0.7 0.4
407 1 0.5 0.6 0.3
162 1 0.3 0.6 0.3
165 1 0.4 0.7 0.3
181 1 0.3 0.7 0.4
182 1 0.4 0.6 0.4
193 1 0.3 0.6 0.5
195 1 0.4 0.7 0.5
441 1 0.5 0.6 0.5
168 1 0.1 0.8 0.3
169 1 2.6952e-18 0.9 0.3
173 1 0.2 0.9 0.3
183 1 2.6952e-18 0.8 0.4
184 1 0.1 0.9 0.4
185 1 0.2 0.8 0.4
196 1 0.1 0.8 0.5
197 1 2.6952e-18 0.9 0.5
199 1 0.2 0.9 0.5
417 1 0.5 0.8 0.3
434 1 0.5 0.9 0.4
187 1 0.4 0.8 0.4
186 1 0.3 0.9 0.4
172 1 0.3 0.8 0.3
175 1 0.4 0.9 0.3
446 1 0.5 0.8 0.5
198 1 0.3 0.8 0.5
200 1 0.4 0.9 0.5
206 1 2.6952e-18 0.6 0.6
207 1 0.1 0.7 0.6
208 1 0.1 0.6 0.7
209 1 2.6952e-18 0.7 0.7
210 1 0.2 0.6 0.6
213 1 0.2 0.7 0.7
457 1 0.5 0.6 0.7
211 1 0.3 0.7 0.6
212 1 0.3 0.6 0.7
214 1 0.4 0.6 0.6
215 1 0.4 0.7 0.7
456 1 0.5 0.7 0.6
216 1 2.6952e-18 0.8 0.6
217 1 0.1 0.9 0.6
218 1 0.1 0.8 0.7
219 1 2.6952e-18 0.9 0.7
220 1 0.2 0.8 0.6
223 1 0.2 0.9 0.7
467 1 0.5 0.8 0.7
466 1 0.5 0.9 0.6
221 1 0.3 0.9 0.6
222 1 0.3 0.8 0.7
224 1 0.4 0.8 0.6
225 1 0.4 0.9 0.7
231 1 2.6952e-18 0.6 0.8
232 1 0.1 0.7 0.8
233 1 0.1 0.6 0.9
234 1 2.6952e-18 0.7 0.9
235 1 0.2 0.6 0.8
238 1 0.2 0.7 0.9
482 1 0.5 0.6 0.9
481 1 0.5 0.7 0.8
240 1 0.4 0.7 0.9
239 1 0.4 0.6 0.8
237 1 0.3 0.6 0.9
236 1 0.3 0.7 0.8
248 1 0.2 0.9 0.9
245 1 0.2 0.8 0.8
244 1 2.6952e-18 0.9 0.9
243 1 0.1 0.8 0.9
242 1 0.1 0.9 0.8
241 1 2.6952e-18 0.8 0.8
491 1 0.5 0.9 0.8
246 1 0.3 0.9 0.8
492 1 0.5 0.8 0.9
247 1 0.3 0.8 0.9
250 1 0.4 0.9 0.9
249 1 0.4 0.8 0.8
253 1 0.6 2.6952e-18 2.6952e-18
254 1 0.7 0.1 2.6952e-18
255 1 0.7 2.6952e-18 0.1
256 1 0.6 0.1 0.1
263 1 0.6 0.2 2.6952e-18
265 1 0.7 0.2 0.1
278 1 0.6 2.6952e-18 0.2
279 1 0.7 0.1 0.2
288 1 0.6 0.2 0.2
257 1 0.8 2.6952e-18 2.6952e-18
258 1 0.9 0.1 2.6952e-18
259 1 0.9 2.6952e-18 0.1
260 1 0.8 0.1 0.1
267 1 0.8 0.2 2.6952e-18
269 1 0.9 0.2 0.1
282 1 0.8 2.6952e-18 0.2
283 1 0.9 0.1 0.2
292 1 0.8 0.2 0.2
264 1 0.7 0.3 2.6952e-18
266 1 0.6 0.3 0.1
272 1 0.6 0.4 2.6952e-18
273 1 0.7 0.4 0.1
289 1 0.7 0.3 0.2
297 1 0.6 0.4 0.2
377 1 0.7 0.5 2.6952e-18
378 1 0.6 0.5 0.1
402 1 0.7 0.5 0.2
268 1 0.9 0.3 2.6952e-18
270 1 0.8 0.3 0.1
274 1 0.8 0.4 2.6952e-18
275 1 0.9 0.4 0.1
293 1 0.9 0.3 0.2
299 1 0.8 0.4 0.2
379 1 0.9 0.5 2.6952e-18
380 1 0.8 0.5 0.1
404 1 0.9 0.5 0.2
280 1 0.7 2.6952e-18 0.3
281 1 0.6 0.1 0.3
290 1 0.7 0.2 0.3
302 1 0.6 2.6952e-18 0.4
303 1 0.7 0.1 0.4
307 1 0.6 0.2 0.4
314 1 0.7 2.6952e-18 0.5
315 1 0.6 0.1 0.5
319 1 0.7 0.2 0.5
309 1 0.8 0.2 0.4
305 1 0.9 0.1 0.4
284 1 0.9 2.6952e-18 0.3
285 1 0.8 0.1 0.3
294 1 0.9 0.2 0.3
304 1 0.8 2.6952e-18 0.4
316 1 0.9 2.6952e-18 0.5
317 1 0.8 0.1 0.5
321 1 0.9 0.2 0.5
311 1 0.6 0.4 0.4
308 1 0.7 0.3 0.4
298 1 0.7 0.4 0.3
291 1 0.6 0.3 0.3
427 1 0.7 0.5 0.4
403 1 0.6 0.5 0.3
320 1 0.6 0.3 0.5
324 1 0.7 0.4 0.5
439 1 0.6 0.5 0.5
312 1 0.8 0.4 0.4
310 1 0.9 0.3 0.4
300 1 0.9 0.4 0.3
295 1 0.8 0.3 0.3
405 1 0.8 0.5 0.3
428 1 0.9 0.5 0.4
440 1 0.8 0.5 0.5
322 1 0.8 0.3 0.5
325 1 0.9 0.4 0.5
328 1 0.6 2.6952e-18 0.6
329 1 0.7 0.1 0.6
330 1 0.7 2.6952e-18 0.7
331 1 0.6 0.1 0.7
338 1 0.6 0.2 0.6
340 1 0.7 0.2 0.7
332 1 0.8 2.6952e-18 0.6
333 1 0.9 0.1 0.6
334 1 0.9 2.6952e-18 0.7
335 1 0.8 0.1 0.7
342 1 0.8 0.2 0.6
344 1 0.9 0.2 0.7
453 1 0.6 0.5 0.7
452 1 0.7 0.5 0.6
339 1 0.7 0.3 0.6
341 1 0.6 0.3 0.7
347 1 0.6 0.4 0.6
348 1 0.7 0.4 0.7
455 1 0.8 0.5 0.7
454 1 0.9 0.5 0.6
343 1 0.9 0.3 0.6
345 1 0.8 0.3 0.7
349 1 0.8 0.4 0.6
350 1 0.9 0.4 0.7
353 1 0.6 2.6952e-18 0.8
354 1 0.7 0.1 0.8
355 1 0.7 2.6952e-18 0.9
356 1 0.6 0.1 0.9
363 1 0.6 0.2 0.8
365 1 0.7 0.2 0.9
359 1 0.9 2.6952e-18 0.9
358 1 0.9 0.1 0.8
369 1 0.9 0.2 0.9
367 1 0.8 0.2 0.8
360 1 0.8 0.1 0.9
357 1 0.8 2.6952e-18 0.8
478 1 0.6 0.5 0.9
477 1 0.7 0.5 0.8
373 1 0.7 0.4 0.9
372 1 0.6 0.4 0.8
366 1 0.6 0.3 0.9
364 1 0.7 0.3 0.8
375 1 0.9 0.4 0.9
374 1 0.8 0.4 0.8
370 1 0.8 0.3 0.9
368 1 0.9 0.3 0.8
479 1 0.9 0.5 0.8
480 1 0.8 0.5 0.9
383 1 0.6 0.6 2.6952e-18
384 1 0.7 0.7 2.6952e-18
385 1 0.7 0.6 0.1
386 1 0.6 0.7 0.1
408 1 0.6 0.6 0.2
409 1 0.7 0.7 0.2
387 1 0.8 0.6 2.6952e-18
388 1 0.9 0.7 2.6952e-18
389 1 0.9 0.6 0.1
390 1 0.8 0.7 0.1
412 1 0.8 0.6 0.2
413 1 0.9 0.7 0.2
393 1 0.6 0.8 2.6952e-18
394 1 0.7 0.9 2.6952e-18
395 1 0.7 0.8 0.1
396 1 0.6 0.9 0.1
418 1 0.6 0.8 0.2
419 1 0.7 0.9 0.2
397 1 0.8 0.8 2.6952e-18
398 1 0.9 0.9 2.6952e-18
399 1 0.9 0.8 0.1
400 1 0.8 0.9 0.1
422 1 0.8 0.8 0.2
423 1 0.9 0.9 0.2
431 1 0.7 0.7 0.4
430 1 0.6 0.6 0.4
411 1 0.6 0.7 0.3
410 1 0.7 0.6 0.3
442 1 0.7 0.6 0.5
443 1 0.6 0.7 0.5
415 1 0.8 0.7 0.3
414 1 0.9 0.6 0.3
432 1 0.8 0.6 0.4
433 1 0.9 0.7 0.4
444 1 0.9 0.6 0.5
445 1 0.8 0.7 0.5
436 1 0.7 0.9 0.4
435 1 0.6 0.8 0.4
421 1 0.6 0.9 0.3
420 1 0.7 0.8 0.3
447 1 0.7 0.8 0.5
448 1 0.6 0.9 0.5
438 1 0.9 0.9 0.4
437 1 0.8 0.8 0.4
425 1 0.8 0.9 0.3
424 1 0.9 0.8 0.3
449 1 0.9 0.8 0.5
450 1 0.8 0.9 0.5
458 1 0.6 0.6 0.6
459 1 0.7 0.7 0.6
460 1 0.7 0.6 0.7
461 1 0.6 0.7 0.7
462 1 0.8 0.6 0.6
463 1 0.9 0.7 0.6
464 1 0.9 0.6 0.7
465 1 0.8 0.7 0.7
468 1 0.6 0.8 0.6
469 1 0.7 0.9 0.6
470 1 0.7 0.8 0.7
471 1 0.6 0.9 0.7
475 1 0.8 0.9 0.7
474 1 0.9 0.8 0.7
473 1 0.9 0.9 0.6
472 1 0.8 0.8 0.6
486 1 0.6 0.7 0.9
485 1 0.7 0.6 0.9
484 1 0.7 0.7 0.8
483 1 0.6 0.6 0.8
488 1 0.9 0.7 0.8
490 1 0.8 0.7 0.9
489 1 0.9 0.6 0.9
487 1 0.8 0.6 0.8
493 1 0.6 0.8 0.8
496 1 0.6 0.9 0.9
495 1 0.7 0.8 0.9
494 1 0.7 0.9 0.8
500 1 0.8 0.9 0.9
499 1 0.9 0.8 0.9
498 1 0.9 0.9 0.8
497 1 0.8 0.8 0.8
ITEM: TIMESTEP
50
ITEM: NUMBER OF ATOMS
500
ITEM: BOX BOUNDS pp pp pp
-2.9216134587482756e-01 2.0292161345874867e+01
-2.9216134587482756e-01 2.0292161345874867e+01
-2.9216134587482756e-01 2.0292161345874867e+01
ITEM: ATOMS id type xs ys zs
1 1 -0.00564262 0.00411518 0.00658108
2 1 0.0941834 0.092501 -0.00554355
3 1 0.103978 0.00142732 0.10545
4 1 0.00508722 0.0977507 0.0970269
5 1 0.196298 0.00391825 0.0056984
8 1 0.196375 0.104802 0.096488
11 1 0.00718865 0.199674 0.00643848
13 1 0.104552 0.206015 0.0983301
15 1 0.196797 0.1955 0.00552097
26 1 0.000833611 -0.00155175 0.198762
27 1 0.104186 0.0961932 0.198615
30 1 0.196834 -0.00247653 0.199409
36 1 -0.00430238 0.202273 0.193722
40 1 0.200127 0.193987 0.195334
6 1 0.294395 0.0968591 -0.00580308
7 1 0.296779 -0.00381361 0.103886
9 1 0.405179 0.00557619 -0.00137845
10 1 0.401099 0.100262 0.0952975
17 1 0.301829 0.199019 0.0975922
19 1 0.394418 0.200155 -0.00588997
31 1 0.303429 0.100029 0.197777
34 1 0.392924 -0.00631011 0.198591
44 1 0.393338 0.205089 0.202786
251 1 0.50078 0.096431 -0.00299423
252 1 0.499107 -0.00157319 0.103976
262 1 0.500173 0.201338 0.101511
276 1 0.496638 0.0984901 0.194474
12 1 0.105894 0.304193 -0.00573169
14 1 -0.00421604 0.30272 0.101093
18 1 0.201267 0.297875 0.103574
21 1 0.00442938 0.397655 0.000584064
22 1 0.100557 0.393372 0.0956499
23 1 0.201861 0.394715 -0.00493147
37 1 0.103584 0.303123 0.205376
46 1 0.000615024 0.397511 0.197388
48 1 0.200736 0.402298 0.205323
126 1 0.0962522 0.494844 -0.00271156
127 1 0.00763566 0.504418 0.0994688
129 1 0.195147 0.499417 0.0962818
151 1 0.105831 0.500847 0.193883
16 1 0.297338 0.299129 0.00162273
20 1 0.400873 0.294961 0.102398
24 1 0.298864 0.396617 0.0963653
25 1 0.400764 0.393802 0.00212649
41 1 0.297336 0.304151 0.19464
50 1 0.402607 0.400096 0.202747
261 1 0.498727 0.293255 0.000332236
271 1 0.498249 0.397972 0.096419
286 1 0.500312 0.300195 0.199559
128 1 0.295221 0.500461 -0.0013513
130 1 0.401935 0.495905 0.097405
153 1 0.295327 0.499824 0.194614
401 1 0.506689 0.504445 0.198148
376 1 0.503917 0.498417 0.00301198
28 1 0.100339 0.00398564 0.305849
29 1 -0.000373918 0.10292 0.300527
33 1 0.19671 0.0998414 0.302852
38 1 0.101448 0.197588 0.294282
51 1 -0.00193061 0.00302063 0.405809
52 1 0.0931769 0.0968977 0.398369
53 1 0.198307 0.0027764 0.394857
56 1 -0.00339953 0.19536 0.396534
58 1 0.197237 0.204016 0.396857
64 1 0.0973443 0.00329844 0.495077
65 1 0.004823 0.104563 0.505489
67 1 0.200211 0.105123 0.497836
69 1 0.104844 0.201982 0.498771
32 1 0.297115 -0.00309294 0.301559
35 1 0.40158 0.0983057 0.301215
42 1 0.298961 0.204072 0.302945
54 1 0.305411 0.101696 0.399835
55 1 0.395017 -0.00594466 0.396753
60 1 0.406451 0.192968 0.403858
277 1 0.499526 -0.00593785 0.296538
287 1 0.497994 0.195208 0.301291
301 1 0.499172 0.0911559 0.39724
66 1 0.299208 0.00220455 0.496342
68 1 0.4039 0.0957571 0.498194
71 1 0.301978 0.194899 0.497527
313 1 0.500526 -0.00660962 0.503137
318 1 0.501079 0.200503 0.497397
39 1 0.00410093 0.306386 0.297683
43 1 0.199026 0.302237 0.29514
47 1 0.104143 0.402262 0.304689
57 1 0.1031 0.296725 0.399885
61 1 0.0061677 0.401295 0.398522
62 1 0.200786 0.399669 0.397994
152 1 0.000100846 0.495803 0.297242
154 1 0.200586 0.494187 0.303848
176 1 0.0984044 0.49727 0.398071
70 1 0.0025947 0.303646 0.495849
72 1 0.204676 0.294671 0.501229
74 1 0.103935 0.394039 0.505819
189 1 0.203494 0.49725 0.505702
188 1 -0.000369633 0.500804 0.495735
45 1 0.404807 0.295755 0.306242
49 1 0.306997 0.395899 0.304563
59 1 0.298106 0.294299 0.407082
63 1 0.400637 0.402302 0.404219
306 1 0.503815 0.298458 0.398823
296 1 0.49578 0.402385 0.304307
426 1 0.494798 0.507267 0.397833
155 1 0.398292 0.505108 0.29343
177 1 0.294686 0.503682 0.405607
190 1 0.396194 0.501704 0.503008
73 1 0.405156 0.294913 0.500006
75 1 0.302988 0.402393 0.496605
323 1 0.496178 0.401153 0.501001
76 1 -0.00507433 0.000670442 0.604757
77 1 0.0996758 0.103467 0.597528
78 1 0.0958888 -0.00542596 0.698038
79 1 0.00156432 0.102486 0.704144
80 1 0.194193 0.00312098 0.598403
83 1 0.19302 0.0975595 0.698652
86 1 0.00334409 0.199462 0.599549
88 1 0.0996869 0.196612 0.695752
90 1 0.197251 0.202329 0.594273
81 1 0.295271 0.0987133 0.60148
82 1 0.294001 0.00476732 0.695476
84 1 0.403924 -0.00273206 0.604959
85 1 0.395102 0.106805 0.69607
92 1 0.29637 0.204172 0.698156
94 1 0.397028 0.199964 0.601819
326 1 0.503033 0.0977805 0.59837
327 1 0.497559 -0.0032448 0.706225
337 1 0.502221 0.205053 0.698898
204 1 0.201494 0.502273 0.697337
87 1 0.105716 0.300497 0.601316
89 1 0.00240769 0.293023 0.693005
93 1 0.198834 0.304206 0.698805
96 1 -9.81412e-05 0.399232 0.594085
97 1 0.0996515 0.401219 0.693982
98 1 0.197828 0.394012 0.603139
202 1 -0.00170581 0.494544 0.702249
201 1 0.102377 0.497643 0.602624
451 1 0.50352 0.497852 0.598194
205 1 0.396572 0.50157 0.697821
203 1 0.297925 0.496565 0.598034
91 1 0.299214 0.299622 0.602235
95 1 0.395759 0.294537 0.704088
99 1 0.303251 0.40288 0.701952
100 1 0.401442 0.395063 0.599925
336 1 0.504432 0.302763 0.598785
346 1 0.503879 0.398457 0.701362
101 1 -0.0054814 -0.00443868 0.797258
102 1 0.100884 0.102356 0.805676
103 1 0.0979568 -0.00313871 0.899734
104 1 0.00391151 0.105575 0.906321
105 1 0.193917 0.00249134 0.803455
108 1 0.195541 0.104585 0.895294
111 1 -0.000204038 0.200559 0.804078
113 1 0.105344 0.196769 0.900539
115 1 0.200282 0.20384 0.803264
106 1 0.297881 0.104722 0.793283
107 1 0.297027 0.000328407 0.902042
109 1 0.40202 0.00756508 0.795001
110 1 0.398087 0.10251 0.902693
117 1 0.300862 0.194512 0.895821
119 1 0.398879 0.200115 0.797914
362 1 0.495854 0.204111 0.901
352 1 0.505816 0.000146574 0.901105
351 1 0.504003 0.106613 0.801479
229 1 0.19509 0.504781 0.907048
227 1 0.00142925 0.500571 0.895758
226 1 0.0957035 0.505977 0.795962
112 1 0.101143 0.304936 0.802268
114 1 0.00130292 0.295094 0.894618
118 1 0.201614 0.300387 0.901291
121 1 0.00690832 0.399427 0.795104
122 1 0.100448 0.395496 0.903105
123 1 0.197561 0.403717 0.805684
230 1 0.396559 0.503167 0.898584
228 1 0.296226 0.495167 0.804893
476 1 0.496852 0.49952 0.802602
116 1 0.304629 0.298061 0.797887
120 1 0.398894 0.299719 0.894218
124 1 0.30503 0.402497 0.897553
125 1 0.396827 0.401633 0.799093
361 1 0.498913 0.296404 0.802479
371 1 0.50293 0.40452 0.90665
131 1 -0.00615904 0.603289 0.00155394
132 1 0.0957079 0.696454 0.00147535
133 1 0.0960871 0.605727 0.0964807
134 1 -0.00133087 0.698806 0.101639
135 1 0.193944 0.600444 0.00418957
138 1 0.199626 0.695283 0.0978522
156 1 -0.00518588 0.598358 0.202155
157 1 0.0941265 0.692836 0.198848
160 1 0.196222 0.596298 0.20631
136 1 0.296482 0.702166 -0.00269843
137 1 0.30488 0.594812 0.0999289
139 1 0.398252 0.598794 0.00739833
140 1 0.400933 0.705598 0.102952
161 1 0.296906 0.705469 0.20468
164 1 0.402336 0.605597 0.198573
406 1 0.500751 0.697124 0.202821
382 1 0.505626 0.603933 0.103576
381 1 0.497092 0.698962 -0.00642424
141 1 0.0019691 0.80079 0.00269274
142 1 0.0968126 0.905924 0.0010492
143 1 0.10567 0.803288 0.101427
144 1 0.00122356 0.906179 0.0983297
145 1 0.200381 0.794394 0.00463631
148 1 0.199526 0.897364 0.095639
166 1 0.0075381 0.799871 0.199743
167 1 0.0973554 0.901262 0.195978
170 1 0.195355 0.793445 0.198347
416 1 0.495197 0.902874 0.198285
392 1 0.50571 0.797505 0.103718
391 1 0.504104 0.904287 0.00485657
146 1 0.299162 0.903007 -0.00139069
147 1 0.304196 0.802296 0.104306
149 1 0.39861 0.797635 -0.00613246
150 1 0.397427 0.893672 0.0960218
171 1 0.297769 0.89676 0.196636
174 1 0.405373 0.805831 0.1968
158 1 0.097249 0.59342 0.299248
159 1 -0.00583317 0.704908 0.300358
163 1 0.200721 0.694811 0.305772
178 1 0.00139007 0.60301 0.404805
179 1 0.0958837 0.698605 0.398628
180 1 0.203859 0.600511 0.397842
191 1 0.0968342 0.595573 0.50497
192 1 0.00529486 0.693371 0.503338
194 1 0.204185 0.696074 0.50004
429 1 0.505672 0.696533 0.402899
407 1 0.503103 0.605849 0.296641
162 1 0.306576 0.59822 0.30227
165 1 0.401752 0.696012 0.297984
181 1 0.296162 0.700506 0.397031
182 1 0.40472 0.605574 0.401085
193 1 0.304145 0.602484 0.503167
195 1 0.405039 0.697163 0.495955
441 1 0.495566 0.597279 0.499435
168 1 0.104027 0.79569 0.305414
169 1 0.00126812 0.899025 0.306419
173 1 0.197482 0.899288 0.297234
183 1 0.00423978 0.796021 0.4001
184 1 0.101861 0.903572 0.406397
185 1 0.206077 0.801421 0.397182
196 1 0.104758 0.803533 0.504085
197 1 0.00510742 0.894637 0.50215
199 1 0.206581 0.906466 0.505073
417 1 0.492918 0.794017 0.297226
434 1 0.50025 0.894264 0.400869
187 1 0.405379 0.795173 0.401656
186 1 0.305349 0.895094 0.404699
172 1 0.305282 0.80234 0.299753
175 1 0.401815 0.903292 0.297182
446 1 0.494505 0.798718 0.499766
198 1 0.304887 0.798818 0.502737
200 1 0.405097 0.903135 0.496502
206 1 0.00537304 0.60549 0.601798
207 1 0.102836 0.706984 0.599068
208 1 0.0935877 0.601544 0.70279
209 1 0.00511966 0.702441 0.706223
210 1 0.194391 0.601246 0.602463
213 1 0.202994 0.698958 0.704312
457 1 0.49722 0.604175 0.703583
211 1 0.294297 0.697745 0.605986
212 1 0.29574 0.599403 0.701131
214 1 0.404493 0.598208 0.606142
215 1 0.397425 0.699739 0.702578
456 1 0.499125 0.697371 0.598487
216 1 -0.00422958 0.79578 0.598262
217 1 0.0997119 0.894652 0.598601
218 1 0.100936 0.794971 0.705066
219 1 -0.00455154 0.901431 0.695954
220 1 0.201211 0.799714 0.595717
223 1 0.198005 0.904087 0.697724
467 1 0.500361 0.796619 0.703675
466 1 0.503865 0.89452 0.604574
221 1 0.297363 0.894997 0.598671
222 1 0.300078 0.799853 0.694589
224 1 0.394929 0.795169 0.597855
225 1 0.399476 0.897603 0.698826
231 1 -0.00630074 0.603455 0.795665
232 1 0.101089 0.69668 0.801533
233 1 0.100681 0.603553 0.904266
234 1 -0.00600953 0.700281 0.893472
235 1 0.197369 0.595057 0.80482
238 1 0.204416 0.698811 0.903781
482 1 0.495658 0.60065 0.902646
481 1 0.493341 0.700828 0.805774
240 1 0.39619 0.693517 0.895436
239 1 0.395612 0.594878 0.802141
237 1 0.301445 0.603596 0.897221
236 1 0.293285 0.704509 0.800755
248 1 0.19947 0.893038 0.899546
245 1 0.197384 0.805948 0.795281
244 1 -0.000581052 0.903124 0.897441
243 1 0.0946281 0.794973 0.905944
242 1 0.0940597 0.903637 0.799048
241 1 0.00209659 0.802986 0.803382
491 1 0.498899 0.901933 0.796267
246 1 0.305618 0.904906 0.793368
492 1 0.497143 0.800686 0.895609
247 1 0.301247 0.80551 0.894595
250 1 0.402096 0.906087 0.905773
249 1 0.404374 0.802929 0.803706
253 1 0.602097 0.00432579 -0.000270058
254 1 0.695588 0.100606 -0.00564571
255 1 0.699561 0.00504175 0.0992386
256 1 0.603642 0.0979883 0.103465
263 1 0.597049 0.204232 -0.00375536
265 1 0.707047 0.199853 0.0945153
278 1 0.602884 2.64454e-05 0.201
279 1 0.695842 0.0994313 0.20392
288 1 0.605782 0.193505 0.203479
257 1 0.805112 -0.00237866 -0.000575828
258 1 0.905521 0.105474 0.00268357
259 1 0.8956 -0.00276641 0.102321
260 1 0.803102 0.100443 0.100998
267 1 0.804676 0.201341 -0.00229306
269 1 0.905302 0.204418 0.0974085
282 1 0.798774 0.000163242 0.198894
283 1 0.90095 0.0969053 0.194649
292 1 0.79914 0.198247 0.203197
264 1 0.69676 0.297858 -0.000310893
266 1 0.600418 0.294799 0.0999771
272 1 0.597757 0.39977 0.00607761
273 1 0.70545 0.39245 0.0963335
289 1 0.696328 0.300807 0.197029
297 1 0.59728 0.393959 0.196874
377 1 0.69902 0.499147 0.0045027
378 1 0.605978 0.497407 0.0946675
402 1 0.696804 0.496337 0.195571
268 1 0.904662 0.303567 -0.00783487
270 1 0.805825 0.297721 0.102897
274 1 0.801314 0.398565 0.00610905
275 1 0.901112 0.396802 0.105756
293 1 0.894043 0.295661 0.206055
299 1 0.794947 0.406871 0.197723
379 1 0.902082 0.500044 0.00534957
380 1 0.798317 0.502937 0.104612
404 1 0.905934 0.501418 0.193016
280 1 0.695584 -0.00167783 0.2964
281 1 0.603209 0.0975591 0.294247
290 1 0.707125 0.196657 0.295983
302 1 0.603792 0.00378626 0.397813
303 1 0.696005 0.105323 0.399036
307 1 0.601676 0.198035 0.394733
314 1 0.701744 -0.00451818 0.499485
315 1 0.594875 0.0988223 0.496323
319 1 0.698383 0.195999 0.502676
309 1 0.793455 0.1997 0.398415
305 1 0.896717 0.101599 0.398381
284 1 0.89978 0.00350347 0.304036
285 1 0.806102 0.0972515 0.298675
294 1 0.899736 0.202618 0.301589
304 1 0.802846 0.00575295 0.402115
316 1 0.902535 0.00439443 0.5017
317 1 0.800314 0.0988018 0.504241
321 1 0.899688 0.194594 0.495497
311 1 0.593002 0.406336 0.401485
308 1 0.700067 0.303624 0.395688
298 1 0.695135 0.401629 0.304885
291 1 0.59635 0.296798 0.299305
427 1 0.700453 0.500183 0.3989
403 1 0.599985 0.497299 0.301785
320 1 0.603425 0.304941 0.495463
324 1 0.69697 0.400564 0.49752
439 1 0.603507 0.501452 0.494206
312 1 0.806269 0.394601 0.40315
310 1 0.904919 0.299243 0.399587
300 1 0.894819 0.40105 0.298218
295 1 0.803281 0.304538 0.300603
405 1 0.80405 0.503511 0.301307
428 1 0.904684 0.494795 0.396679
440 1 0.796187 0.493929 0.505019
322 1 0.794118 0.305377 0.496899
325 1 0.903871 0.404025 0.495556
328 1 0.593922 0.00311095 0.602181
329 1 0.695169 0.0954545 0.597921
330 1 0.700105 -0.00151779 0.697683
331 1 0.601078 0.0935697 0.6999
338 1 0.599265 0.202938 0.605723
340 1 0.694288 0.205422 0.698067
332 1 0.794036 0.00327378 0.598536
333 1 0.900781 0.100601 0.599413
334 1 0.900686 0.0076927 0.701515
335 1 0.804182 0.105321 0.700572
342 1 0.805342 0.205471 0.597168
344 1 0.898963 0.196021 0.70518
453 1 0.598689 0.50002 0.70385
452 1 0.704626 0.496744 0.600356
339 1 0.69841 0.296491 0.600256
341 1 0.597824 0.299691 0.707164
347 1 0.603188 0.400256 0.603293
348 1 0.705603 0.401827 0.706374
455 1 0.802643 0.496361 0.70481
454 1 0.905865 0.494835 0.596454
343 1 0.895052 0.2958 0.598134
345 1 0.796042 0.29999 0.699685
349 1 0.80525 0.3965 0.596915
350 1 0.905348 0.392664 0.705418
353 1 0.595696 0.00446736 0.804409
354 1 0.701698 0.0989477 0.793726
355 1 0.693399 -0.00228182 0.905236
356 1 0.605889 0.0965087 0.900908
363 1 0.597801 0.192983 0.797198
365 1 0.701554 0.203147 0.902711
359 1 0.905348 0.00554517 0.905149
358 1 0.906486 0.105368 0.806569
369 1 0.896865 0.196168 0.899829
367 1 0.801112 0.194923 0.797063
360 1 0.799177 0.0930836 0.896192
357 1 0.797774 0.00216625 0.803787
478 1 0.594286 0.498389 0.901113
477 1 0.700183 0.495856 0.801894
373 1 0.697708 0.40012 0.897196
372 1 0.594598 0.399993 0.804987
366 1 0.605085 0.296729 0.895214
364 1 0.695302 0.303805 0.802122
375 1 0.896337 0.404644 0.893507
374 1 0.79786 0.404912 0.805955
370 1 0.799159 0.298694 0.904145
368 1 0.893528 0.302462 0.794005
479 1 0.903508 0.502226 0.79505
480 1 0.797371 0.506598 0.900653
383 1 0.600248 0.605063 0.000785503
384 1 0.694804 0.702905 0.00035825
385 1 0.699767 0.594425 0.101202
386 1 0.604993 0.697907 0.0959241
408 1 0.604612 0.599032 0.196958
409 1 0.700757 0.70649 0.196921
387 1 0.802339 0.607234 0.00205098
388 1 0.902668 0.705019 0.00339296
389 1 0.899614 0.603213 0.0984864
390 1 0.797094 0.701252 0.100924
412 1 0.798076 0.595461 0.206868
413 1 0.903521 0.706731 0.193984
393 1 0.594429 0.804522 -0.00288478
394 1 0.700416 0.904407 0.000812584
395 1 0.7008 0.805895 0.102641
396 1 0.597162 0.905546 0.0981589
418 1 0.595317 0.800521 0.203017
419 1 0.697329 0.893676 0.203608
397 1 0.796958 0.796016 -0.00151942
398 1 0.896823 0.904749 0.000480702
399 1 0.898672 0.803324 0.101114
400 1 0.793627 0.905841 0.105805
422 1 0.800665 0.800991 0.194441
423 1 0.899993 0.895978 0.205851
431 1 0.705005 0.701682 0.402006
430 1 0.600091 0.603559 0.402009
411 1 0.59907 0.705554 0.295112
410 1 0.694703 0.605694 0.301887
442 1 0.693981 0.594761 0.505082
443 1 0.603198 0.701669 0.494369
415 1 0.796932 0.706497 0.296076
414 1 0.902251 0.600663 0.296323
432 1 0.798466 0.594279 0.402685
433 1 0.894112 0.696148 0.395027
444 1 0.894981 0.600387 0.503488
445 1 0.802628 0.701204 0.498246
436 1 0.707432 0.896957 0.399541
435 1 0.598586 0.79862 0.396163
421 1 0.595743 0.898873 0.302917
420 1 0.698684 0.806056 0.303779
447 1 0.706415 0.801543 0.494064
448 1 0.598958 0.895183 0.494299
438 1 0.904826 0.89806 0.395682
437 1 0.806071 0.805533 0.405674
425 1 0.802072 0.9003 0.297314
424 1 0.902353 0.804741 0.302389
449 1 0.906085 0.792584 0.494191
450 1 0.808274 0.894412 0.502807
458 1 0.601943 0.595044 0.601561
459 1 0.698891 0.702991 0.599106
460 1 0.703496 0.601092 0.702526
461 1 0.603963 0.697951 0.703212
462 1 0.797458 0.594629 0.594984
463 1 0.89733 0.704688 0.603411
464 1 0.898239 0.602174 0.692011
465 1 0.794993 0.695969 0.697215
468 1 0.59712 0.793878 0.595151
469 1 0.702145 0.899961 0.598889
470 1 0.695102 0.806817 0.697335
471 1 0.60171 0.906 0.705944
475 1 0.807036 0.905586 0.694082
474 1 0.895386 0.799598 0.697332
473 1 0.904319 0.905152 0.596831
472 1 0.796223 0.796003 0.604988
486 1 0.598572 0.706527 0.896892
485 1 0.699126 0.601336 0.906844
484 1 0.69524 0.704036 0.802823
483 1 0.600584 0.604026 0.804993
488 1 0.892831 0.700999 0.797676
490 1 0.802717 0.701375 0.902085
489 1 0.902525 0.594373 0.906479
487 1 0.803397 0.605852 0.799701
493 1 0.600143 0.796844 0.793973
496 1 0.600869 0.895023 0.902348
495 1 0.703983 0.800731 0.899149
494 1 0.705667 0.901191 0.79841
500 1 0.796009 0.903599 0.896085
499 1 0.9018 0.805199 0.894757
498 1 0.898615 0.896341 0.795428
497 1 0.801322 0.80595 0.802876
ITEM: TIMESTEP
100
ITEM: NUMBER OF ATOMS
500
ITEM: BOX BOUNDS pp pp pp
-2.4577673683985246e-01 2.0245776736839893e+01
-2.4577673683985246e-01 2.0245776736839893e+01
-2.4577673683985246e-01 2.0245776736839893e+01
ITEM: ATOMS id type xs ys zs
1 1 -0.00444213 0.000808734 0.00521183
2 1 0.0994497 0.0948398 0.00038585
3 1 0.102689 0.00053336 0.102389
4 1 0.00601674 0.0995442 0.10239
5 1 0.196105 0.000606408 -0.00163744
8 1 0.198604 0.0992923 0.0991104
11 1 0.00811603 0.206259 0.00173359
13 1 0.099312 0.204864 0.100192
15 1 0.19882 0.197341 -0.00162477
26 1 -0.000448055 -0.00128032 0.204177
27 1 0.0988452 0.100676 0.199096
30 1 0.200486 -0.000491308 0.201113
36 1 0.00208811 0.201506 0.196158
40 1 0.204558 0.196528 0.198729
6 1 0.294575 0.0953351 -0.0020757
7 1 0.297382 0.000226855 0.0977168
9 1 0.399586 0.00285076 0.00233631
10 1 0.397021 0.100993 0.095923
17 1 0.30141 0.196441 0.0962816
19 1 0.395968 0.198519 -0.00330547
31 1 0.299563 0.0983644 0.200898
34 1 0.39231 -0.00347593 0.196068
44 1 0.395571 0.20063 0.202576
251 1 0.503901 0.10318 -5.42128e-05
252 1 0.497482 0.00111086 0.102801
262 1 0.498404 0.195663 0.100822
276 1 0.493279 0.0978019 0.197091
12 1 0.102634 0.298194 -0.00255607
14 1 0.00123659 0.302699 0.1005
18 1 0.201348 0.299461 0.102863
21 1 -0.00252204 0.398329 -0.00389295
22 1 0.10416 0.392526 0.0983086
23 1 0.203569 0.397877 -0.00384367
37 1 0.101695 0.301221 0.200826
46 1 0.00391605 0.399253 0.198778
48 1 0.202655 0.403462 0.200712
126 1 0.0941353 0.497928 -0.00152246
127 1 0.00643534 0.499902 0.0985706
129 1 0.194384 0.497734 0.09374
151 1 0.101809 0.497454 0.196165
16 1 0.298802 0.295004 -0.0028504
20 1 0.399795 0.295583 0.101076
24 1 0.299294 0.399361 0.0977088
25 1 0.398795 0.395728 -0.0013839
41 1 0.301171 0.302839 0.201365
50 1 0.402229 0.399975 0.20066
261 1 0.498338 0.295497 -0.00232423
271 1 0.499338 0.395421 0.0994289
286 1 0.500487 0.295738 0.203113
128 1 0.297981 0.498943 -0.00086737
130 1 0.403523 0.496746 0.100989
153 1 0.298782 0.497204 0.197143
401 1 0.506198 0.501082 0.196334
376 1 0.499354 0.502891 0.00450706
28 1 0.0958351 -0.00076161 0.301788
29 1 -0.00258959 0.101599 0.293882
33 1 0.202535 0.101354 0.30034
38 1 0.0979911 0.198723 0.292766
51 1 -0.0041547 0.00312121 0.405743
52 1 0.0960916 0.10421 0.39982
53 1 0.203763 0.000703986 0.399483
56 1 0.00248074 0.200485 0.396457
58 1 0.198054 0.198417 0.394587
64 1 0.0980125 0.00219751 0.501781
65 1 0.000949418 0.105248 0.502367
67 1 0.198499 0.102687 0.492111
69 1 0.099938 0.203353 0.494575
32 1 0.295286 -0.00361939 0.299203
35 1 0.398424 0.0948348 0.29641
42 1 0.299719 0.202335 0.301255
54 1 0.302011 0.101519 0.396442
55 1 0.399505 -0.00590367 0.397031
60 1 0.40641 0.193124 0.402262
277 1 0.499751 -0.00312968 0.295362
287 1 0.499866 0.191598 0.297239
301 1 0.501902 0.0878542 0.396528
66 1 0.30168 0.00347169 0.500882
68 1 0.405132 0.0912257 0.50384
71 1 0.304589 0.193097 0.500111
313 1 0.501993 -0.00880921 0.499325