LAMMPS (3 Mar 2020)
# Mo, fcc

# # ---------- Initialize Simulation ---------------------
clear
units           metal
dimension       3
boundary        p p p
atom_style      atomic
atom_modify     map array

# # ---------- Create Atoms ---------------------
lattice         fcc 4.00
Lattice spacing in x,y,z = 4 4 4
region          box block 0 5 0 5 0 5 units lattice
create_box      1 box
Created orthogonal box = (0 0 0) to (20 20 20)
  1 by 2 by 2 MPI processor grid
create_atoms    1 box
Created 500 atoms
  create_atoms CPU = 0.000312938 secs

# # ---------- Define Interatomic Potential ---------------------
pair_style      eam/alloy
pair_coeff      * * Mo_Zhou04.eam.alloy Mo
Reading potential file Mo_Zhou04.eam.alloy with DATE: 2018-03-30
neighbor        2.0 bin
neigh_modify    delay 10 check yes

#  # ---------- Define Settings ---------------------
compute         eng all pe/atom
compute         eatoms all reduce sum c_eng

#  # ---------- Run Minimization ---------------------
reset_timestep  0
fix             1 all box/relax iso 0.0 vmax 0.001
thermo          10
thermo_style    custom step pe lx ly lz press pxx pyy pzz c_eatoms
min_style       cg
minimize        1e-25 1e-25 5000 10000
WARNING: Using 'neigh_modify every 1 delay 0 check yes' setting during minimization (src/min.cpp:190)
Neighbor list info ...
  update every 1 steps, delay 0 steps, check yes
  max neighbors/atom: 2000, page size: 100000
  master list distance cutoff = 8.10022
  ghost atom cutoff = 8.10022
  binsize = 4.05011, bins = 5 5 5
  1 neighbor lists, perpetual/occasional/extra = 1 0 0
  (1) pair eam/alloy, perpetual
      attributes: half, newton on
      pair build: half/bin/atomonly/newton
      stencil: half/bin/3d/newton
      bin: standard
Per MPI rank memory allocation (min/avg/max) = 4.661 | 4.661 | 4.661 Mbytes
Step PotEng Lx Ly Lz Press Pxx Pyy Pzz c_eatoms 
       0   -3303.2277           20           20           20    111293.35    111293.35    111293.35    111293.35   -3303.2277 
      10   -3316.9931         20.2         20.2         20.2    71589.907    71589.907    71589.907    71589.907   -3316.9931 
      20   -3325.2265         20.4         20.4         20.4    35724.278    35724.278    35724.278    35724.278   -3325.2265 
      30   -3328.0429    20.596247    20.596247    20.596247    5.3292776    5.3292776    5.3292776    5.3292776   -3328.0429 
      35   -3328.0429    20.596275    20.596275    20.596275 -5.0486826e-10 -5.0496882e-10 -5.0460945e-10 -5.050265e-10   -3328.0429 
Loop time of 0.0223419 on 4 procs for 35 steps with 500 atoms

99.9% CPU use with 4 MPI tasks x no OpenMP threads

Minimization stats:
  Stopping criterion = energy tolerance
  Energy initial, next-to-last, final = 
        -3303.22769512     -3328.04286797     -3328.04286797
  Force two-norm initial, final = 1667.13 8.18983e-12
  Force max component initial, final = 1667.13 8.02041e-12
  Final line search alpha, max atom move = 1 8.02041e-12
  Iterations, force evaluations = 35 41

MPI task timing breakdown:
Section |  min time  |  avg time  |  max time  |%varavg| %total
---------------------------------------------------------------
Pair    | 0.012789   | 0.015084   | 0.017687   |   1.7 | 67.52
Neigh   | 0.00010915 | 0.00020059 | 0.00030767 |   0.0 |  0.90
Comm    | 0.0018629  | 0.0045647  | 0.0069407  |   3.2 | 20.43
Output  | 0.00011678 | 0.00012712 | 0.00015189 |   0.0 |  0.57
Modify  | 0          | 0          | 0          |   0.0 |  0.00
Other   |            | 0.002365   |            |       | 10.59

Nlocal:    125 ave 180 max 80 min
Histogram: 1 0 0 0 2 0 0 0 0 1
Nghost:    1099 ave 1144 max 1044 min
Histogram: 1 0 0 0 0 0 2 0 0 1
Neighs:    8375 ave 12060 max 5360 min
Histogram: 1 0 0 0 2 0 0 0 0 1

Total # of neighbors = 33500
Ave neighs/atom = 67
Neighbor list builds = 1
Dangerous builds = 0
unfix           1

#  # ----------- Run simulation of fcc phase of Mo --------------------
reset_timestep  0
thermo          10
thermo_style    custom step lx ly lz press pxx pyy pzz pe temp
thermo_modify   format 2 %22.18f
velocity        all create 600 12345 mom yes rot no
dump            1 all custom 50 dumpMoFcc.out id type x y z

fix             2 all nvt temp 600.0 600.0 100.0

run             9999
Per MPI rank memory allocation (min/avg/max) = 4.919 | 4.919 | 4.919 Mbytes
Step Lx Ly Lz Press Pxx Pyy Pzz PotEng Temp 
       0  20.596274644052037672    20.596275    20.596275    4731.1804     4656.758    4827.5031    4709.2802   -3328.0429          600 
      10  20.596274644052037672    20.596275    20.596275    2561.8852    2566.9528    2591.0779     2527.625   -3325.0806    554.08068 
      20  20.596274644052037672    20.596275    20.596275   -2977.7154   -2765.1128   -3132.6423   -3035.3911   -3317.1005    430.38687 
      30  20.596274644052037672    20.596275    20.596275    -9523.277   -9080.6246   -9890.5365   -9598.6699   -3306.9396    272.89502 
      40  20.596274644052037672    20.596275    20.596275   -14698.516   -14144.138   -15177.596   -14773.813   -3298.7186    145.47344 
      50  20.596274644052037672    20.596275    20.596275   -17163.811   -16706.814    -17571.72     -17212.9   -3295.7038     98.73627 
      60  20.596274644052037672    20.596275    20.596275   -16723.321   -16545.954   -16903.067   -16720.943   -3298.2823    138.68644 
      70  20.596274644052037672    20.596275    20.596275   -14191.086   -14334.592   -14118.801   -14119.864   -3303.9953    227.22529 
      80  20.596274644052037672    20.596275    20.596275   -11099.214   -11431.445   -10912.145   -10954.051   -3309.4719    312.11115 
      90  20.596274644052037672    20.596275    20.596275   -8908.7342   -9193.9402   -8824.0818   -8708.1806   -3312.4113     357.6792 
     100  20.596274644052037672    20.596275    20.596275   -8192.5636    -8214.309   -8372.5891   -7990.7928   -3312.3441    356.64792 
     110  20.596274644052037672    20.596275    20.596275   -8530.8728   -8207.2426   -8983.1448   -8402.2309   -3310.3838    326.27518 
     120  20.596274644052037672    20.596275    20.596275   -9059.5375   -8491.2577   -9629.8525   -9057.5023   -3308.4273    295.95738 
     130  20.596274644052037672    20.596275    20.596275   -9107.0723   -8528.2248   -9549.7412   -9243.2508    -3307.995    289.25805 
     140  20.596274644052037672    20.596275    20.596275   -8516.5273   -8176.5339   -8604.6754   -8768.3725   -3309.3011    309.49582 
     150  20.596274644052037672    20.596275    20.596275   -7664.9748   -7696.7776    -7306.973   -7991.1739   -3311.2652    339.93213 
     160  20.596274644052037672    20.596275    20.596275   -7202.1449   -7541.6592   -6499.0511   -7565.7244   -3312.3946    357.43318 
     170  20.596274644052037672    20.596275    20.596275   -7604.5951   -8014.0202   -6807.0445   -7992.7207   -3311.7725    347.78896 
     180  20.596274644052037672    20.596275    20.596275   -8801.2546   -8998.6161   -8190.4106    -9214.737   -3309.5659    313.59116 
     190  20.596274644052037672    20.596275    20.596275    -10183.48   -9999.9961   -9947.4906   -10602.954    -3306.937    272.84853 
     200  20.596274644052037672    20.596275    20.596275   -11017.654   -10455.839    -11197.24   -11399.882    -3305.399    249.01261 
     210  20.596274644052037672    20.596275    20.596275    -10890.62   -10066.816   -11408.947   -11196.097   -3305.8702    256.31546 
     220  20.596274644052037672    20.596275    20.596275   -9906.1528   -8965.4449   -10635.979   -10117.035   -3308.0537    290.15397 
     230  20.596274644052037672    20.596275    20.596275   -8641.2889   -7706.5126   -9456.1123   -8761.2419   -3310.6427    330.27891 
     240  20.596274644052037672    20.596275    20.596275   -7824.2339   -6987.9666    -8610.148   -7874.5873   -3312.1658    353.88507 
     250  20.596274644052037672    20.596275    20.596275   -7888.5367   -7231.6208   -8532.0383   -7901.9511   -3311.8346    348.75385 
     260  20.596274644052037672    20.596275    20.596275   -8723.6561   -8325.0656   -9123.1185   -8722.7843   -3309.9354    319.32101 
     270  20.596274644052037672    20.596275    20.596275    -9792.264    -9694.568   -9897.5759    -9784.648   -3307.6563    284.00056 
     280  20.596274644052037672    20.596275    20.596275   -10482.664   -10646.362   -10325.078   -10476.552   -3306.3955    264.46078 
     290  20.596274644052037672    20.596275    20.596275   -10435.064   -10738.677   -10123.013   -10443.502   -3306.8812    271.98592 
     300  20.596274644052037672    20.596275    20.596275   -9705.6927   -9994.0629   -9383.8008   -9739.2144   -3308.7334    300.69188 
     310  20.596274644052037672    20.596275    20.596275   -8729.6074    -8875.264   -8533.3992   -8780.1589   -3310.7999     332.7187 
     320  20.596274644052037672    20.596275    20.596275   -8074.7972   -8021.4845   -8106.0628   -8096.8441   -3311.9101    349.92477 
     330  20.596274644052037672    20.596275    20.596275   -8096.2574   -7874.1295   -8399.4811   -8015.1615   -3311.4947    343.48796 
     340  20.596274644052037672    20.596275    20.596275   -8729.6264   -8434.0405   -9263.8908   -8490.9478   -3309.8408    317.85554 
     350  20.596274644052037672    20.596275    20.596275   -9566.0645   -9301.7698   -10203.125    -9193.299   -3307.9312    288.26167 
     360  20.596274644052037672    20.596275    20.596275   -10116.162   -9952.8605   -10688.418    -9707.207   -3306.8784    271.94479 
     370  20.596274644052037672    20.596275    20.596275   -10074.187   -10030.576   -10446.283   -9745.7018   -3307.2494    277.69279 
     380  20.596274644052037672    20.596275    20.596275   -9446.1126   -9487.8616   -9577.9927   -9272.4834   -3308.7464    300.89424 
     390  20.596274644052037672    20.596275    20.596275   -8567.4164   -8636.0607   -8546.3014    -8519.887   -3310.4543    327.36347 
     400  20.596274644052037672    20.596275    20.596275   -7914.5719   -7974.1419   -7912.1159   -7857.4578   -3311.4481    342.76661 
     410  20.596274644052037672    20.596275    20.596275   -7787.3391   -7842.3141   -7937.5782   -7582.1251   -3311.3121    340.66178 
     420  20.596274644052037672    20.596275    20.596275   -8145.0557    -8223.662   -8447.6861    -7763.819   -3310.2792    324.65422 
     430  20.596274644052037672    20.596275    20.596275   -8712.3407   -8832.0389    -9048.631   -8256.3524   -3309.0181    305.10885 
     440  20.596274644052037672    20.596275    20.596275   -9201.4863   -9340.7932   -9429.9711   -8833.6948   -3308.2261    292.83294 
     450  20.596274644052037672    20.596275    20.596275    -9452.861   -9551.2075   -9498.7763   -9308.5991   -3308.2155     292.6662 
     460  20.596274644052037672    20.596275    20.596275   -9505.7452   -9497.2406   -9399.1771    -9620.818   -3308.7458    300.88234 
     470  20.596274644052037672    20.596275    20.596275   -9555.2425    -9395.179   -9421.9091   -9848.6396   -3309.2431    308.58783 
     480  20.596274644052037672    20.596275    20.596275   -9766.9373   -9438.2876   -9757.8981   -10104.626   -3309.2312    308.40358 
     490  20.596274644052037672    20.596275    20.596275   -10139.209   -9683.1547   -10327.456   -10407.016   -3308.6411    299.25804 
     500  20.596274644052037672    20.596275    20.596275   -10520.892   -10063.225   -10868.634   -10630.816   -3307.8223    286.56945 
     510  20.596274644052037672    20.596275    20.596275   -10692.405   -10399.911   -11116.003     -10561.3   -3307.3013    278.49605 
     520  20.596274644052037672    20.596275    20.596275   -10489.517   -10483.006   -10933.775   -10051.771   -3307.4507    280.81206 
     530  20.596274644052037672    20.596275    20.596275    -9893.765   -10185.776   -10341.873   -9153.6458   -3308.2657    293.44415 
     540  20.596274644052037672    20.596275    20.596275   -9061.8517     -9538.86   -9494.1929   -8152.5022   -3309.3876    310.83238 
     550  20.596274644052037672    20.596275    20.596275   -8258.8511    -8701.347   -8632.3729   -7442.8335   -3310.3332    325.48946 
     560  20.596274644052037672    20.596275    20.596275   -7720.6114   -7887.8778   -7981.4908   -7292.4657   -3310.7642    332.17218 
     570  20.596274644052037672    20.596275    20.596275   -7562.2306   -7331.3099   -7662.7647   -7692.6172   -3310.6553    330.48731 
     580  20.596274644052037672    20.596275    20.596275   -7746.5308    -7199.642    -7671.927   -8368.0234   -3310.2665    324.46227 
     590  20.596274644052037672    20.596275    20.596275   -8125.7737   -7495.6599   -7938.5858   -8943.0755   -3309.9322     319.2818 
     600  20.596274644052037672    20.596275    20.596275   -8543.4276   -8057.2625    -8399.636   -9173.3845   -3309.8111    317.40197 
     610  20.596274644052037672    20.596275    20.596275   -8942.9403   -8679.9994   -9043.3351   -9105.4865   -3309.7817    316.94472 
     620  20.596274644052037672    20.596275    20.596275   -9397.3708   -9258.5388   -9888.5177   -9045.0559   -3309.5651    313.58338 
     630  20.596274644052037672    20.596275    20.596275    -9984.432   -9799.2531   -10856.687   -9297.3562   -3308.9564    304.14811 
     640  20.596274644052037672    20.596275    20.596275   -10659.518   -10330.368   -11718.493   -9929.6927   -3307.9988    289.30435 
     650  20.596274644052037672    20.596275    20.596275   -11225.483   -10787.354   -12164.362   -10724.734   -3307.0126    274.01902 
     660  20.596274644052037672    20.596275    20.596275   -11429.072   -11010.404   -11964.968   -11311.845   -3306.4711    265.62765 
     670  20.596274644052037672    20.596275    20.596275   -11109.485   -10849.155   -11112.695   -11366.606   -3306.7485    269.92966 
     680  20.596274644052037672    20.596275    20.596275   -10285.833   -10266.854   -9839.2777   -10751.366   -3307.8596    287.15134 
     690  20.596274644052037672    20.596275    20.596275   -9179.0293   -9403.5552   -8533.2474   -9600.2854   -3309.3939     310.9326 
     700  20.596274644052037672    20.596275    20.596275   -8152.7182   -8538.0794   -7593.5824   -8326.4927   -3310.7281    331.61344 
     710  20.596274644052037672    20.596275    20.596275   -7548.1788   -7946.4461   -7268.0837   -7430.0065   -3311.3748    341.63842 
     720  20.596274644052037672    20.596275    20.596275   -7486.0056   -7755.0048   -7529.9966   -7173.0156   -3311.2318    339.42602 
     730  20.596274644052037672    20.596275    20.596275   -7832.2979    -7900.603   -8122.0296   -7474.2612   -3310.5813    329.34482 
     740  20.596274644052037672    20.596275    20.596275   -8328.5657    -8206.319   -8726.4308   -8052.9472   -3309.8709    318.33399 
     750  20.596274644052037672    20.596275    20.596275    -8747.475   -8506.3773   -9122.8151   -8613.2326   -3309.4489     311.7931 
     760  20.596274644052037672    20.596275    20.596275    -8979.776   -8723.6187   -9265.7231   -8949.9862   -3309.3895    310.87065 
     770  20.596274644052037672    20.596275    20.596275   -9074.3381   -8906.4713   -9286.0333   -9030.5098   -3309.4799    312.26852 
     780  20.596274644052037672    20.596275    20.596275     -9195.67   -9180.2267   -9397.4173   -9009.3659   -3309.3904    310.87857 
     790  20.596274644052037672    20.596275    20.596275   -9459.7786   -9600.2092   -9704.4229   -9074.7037   -3308.9417    303.92488 
     800  20.596274644052037672    20.596275    20.596275   -9808.3647   -10061.115   -10081.875   -9282.1046   -3308.2784    293.64568 
     810  20.596274644052037672    20.596275    20.596275   -10013.937   -10315.636   -10239.728   -9486.4463   -3307.8024    286.26909 
     820  20.596274644052037672    20.596275    20.596275   -9853.7679    -10138.61   -9951.8492   -9470.8439   -3307.9036    287.84025 
     830  20.596274644052037672    20.596275    20.596275   -9285.7803   -9491.8007   -9209.6889   -9155.8512   -3308.6853    299.95588 
     840  20.596274644052037672    20.596275    20.596275   -8493.1694    -8588.998   -8226.6079   -8663.9023   -3309.8687    318.29863 
     850  20.596274644052037672    20.596275    20.596275   -7822.9544   -7839.3472   -7397.9983   -8231.5176   -3310.9112     334.4556 
     860  20.596274644052037672    20.596275    20.596275   -7637.6559   -7648.9014   -7178.3755   -8085.6908   -3311.2594    339.85142 
     870  20.596274644052037672    20.596275    20.596275   -8121.8159   -8188.5672   -7819.7675    -8357.113   -3310.6261    330.03428 
     880  20.596274644052037672    20.596275    20.596275   -9141.2894   -9277.5032   -9140.4543   -9005.9107   -3309.1684    307.44163 
     890  20.596274644052037672    20.596275    20.596275   -10302.755    -10490.06   -10607.373   -9810.8323   -3307.4697     281.1135 
     900  20.596274644052037672    20.596275    20.596275   -11172.767   -11376.127   -11667.602   -10474.571   -3306.2846    262.74459 
     910  20.596274644052037672    20.596275    20.596275   -11455.565   -11617.744   -12001.733   -10747.219   -3306.1568    260.76442 
     920  20.596274644052037672    20.596275    20.596275   -11072.412   -11117.036    -11598.23    -10501.97   -3307.1418    276.03168 
     930  20.596274644052037672    20.596275    20.596275   -10172.668   -10040.603   -10696.411   -9780.9905   -3308.7914    301.59966 
     940  20.596274644052037672    20.596275    20.596275   -9117.4951   -8812.4284   -9692.3446   -8847.7124   -3310.3763    326.16528 
     950  20.596274644052037672    20.596275    20.596275   -8362.3425   -7936.6174   -9011.5778   -8138.8323   -3311.2269    339.34952 
     960  20.596274644052037672    20.596275    20.596275   -8194.2983   -7696.4968   -8881.0233   -8005.3747   -3311.0432    336.50418 
     970  20.596274644052037672    20.596275    20.596275   -8562.8485   -8040.2679   -9177.5226    -8470.755   -3310.0371    320.91213 
     980  20.596274644052037672    20.596275    20.596275   -9162.2915   -8691.9371   -9557.0691   -9237.8682    -3308.799    301.72338 
     990  20.596274644052037672    20.596275    20.596275   -9641.7824   -9317.5775   -9725.4623   -9882.3075   -3307.9423    288.44464 
    1000  20.596274644052037672    20.596275    20.596275   -9781.5436   -9653.5939   -9589.3286   -10101.708   -3307.7943    286.14957 
    1010  20.596274644052037672    20.596275    20.596275   -9562.3404    -9588.189   -9238.8359   -9859.9962   -3308.3152    294.22216 
    1020  20.596274644052037672    20.596275    20.596275   -9144.2997   -9204.3131   -8887.6408   -9340.9451   -3309.1814    307.64873 
    1030  20.596274644052037672    20.596275    20.596275   -8760.8436   -8714.3855   -8761.4581   -8806.6872   -3309.9487    319.54066 
    1040  20.596274644052037672    20.596275    20.596275   -8561.0805   -8316.0357   -8906.7942   -8460.4117   -3310.2827    324.71898 
    1050  20.596274644052037672    20.596275    20.596275   -8525.6578   -8079.6752   -9145.8653   -8351.4329   -3310.1499    322.66268 
    1060  20.596274644052037672    20.596275    20.596275   -8584.0541   -8003.7283     -9322.85   -8425.5839   -3309.7985    317.21868 
    1070  20.596274644052037672    20.596275    20.596275    -8692.929     -8066.97   -9429.2113   -8582.6056   -3309.5458    313.30227 
    1080  20.596274644052037672    20.596275    20.596275   -8810.3072   -8217.9916   -9483.2348   -8729.6953   -3309.5449    313.28748 
    1090  20.596274644052037672    20.596275    20.596275   -8898.3303   -8385.8161   -9450.7265   -8858.4482    -3309.695     315.6134 
    1100  20.596274644052037672    20.596275    20.596275   -8991.1297   -8560.1979   -9354.3902   -9058.8011   -3309.7445    316.37925 
    1110  20.596274644052037672    20.596275    20.596275   -9173.0512   -8818.4078      -9305.2   -9395.5457   -3309.4913    312.45285 
    1120  20.596274644052037672    20.596275    20.596275   -9479.3833   -9239.1743   -9375.5504    -9823.425   -3308.9221    303.63111 
    1130  20.596274644052037672    20.596275    20.596275   -9809.4451   -9729.6494   -9506.5401   -10192.146   -3308.2308    292.91702 
    1140  20.596274644052037672    20.596275    20.596275     -9976.03   -10028.427   -9581.8143   -10317.848   -3307.7499    285.46418 
    1150  20.596274644052037672    20.596275    20.596275   -9819.0588   -9899.5159   -9486.2365   -10071.424   -3307.8069    286.34958 
    1160  20.596274644052037672    20.596275    20.596275   -9308.8826   -9309.6374   -9145.0139   -9471.9966   -3308.5208    297.41591 
    1170  20.596274644052037672    20.596275    20.596275   -8595.3345   -8450.7699    -8611.831   -8723.4027   -3309.6551    314.99766 
    1180  20.596274644052037672    20.596275    20.596275   -7980.2755    -7673.976   -8109.1439   -8157.7065   -3310.6802    330.88483 
    1190  20.596274644052037672    20.596275    20.596275   -7804.8599   -7409.4525   -7929.3056   -8075.8216   -3311.0526    336.65649 
    1200  20.596274644052037672    20.596275    20.596275   -8263.3457   -7974.3976   -8259.4837   -8556.1558   -3310.5241    328.46532 
    1210  20.596274644052037672    20.596275    20.596275   -9218.6788   -9271.8708   -9025.4783   -9358.6873   -3309.2647     308.9451 
    1220  20.596274644052037672    20.596275    20.596275   -10253.612   -10753.291   -9918.3821   -10089.163   -3307.7917    286.11442 
    1230  20.596274644052037672    20.596275    20.596275   -10929.444   -11735.112    -10586.92     -10466.3   -3306.7564    270.06816 
    1240  20.596274644052037672    20.596275    20.596275   -11004.848   -11787.159   -10817.122   -10410.262   -3306.6397    268.26073 
    1250  20.596274644052037672    20.596275    20.596275    -10497.63   -10924.342   -10574.463   -9994.0858   -3307.4994    281.58526 
    1260  20.596274644052037672    20.596275    20.596275   -9642.5011   -9532.7043   -9981.9361   -9412.8629   -3308.9285    303.73474 
    1270  20.596274644052037672    20.596275    20.596275   -8790.1922   -8140.8589   -9296.9058   -8932.8119   -3310.2799    324.68271 
    1280  20.596274644052037672    20.596275    20.596275   -8249.6765   -7210.0428   -8808.6373   -8730.3495   -3311.0159    336.09225 
    1290  20.596274644052037672    20.596275    20.596275   -8145.6662   -7002.2653   -8666.6319   -8768.1013   -3310.9352    334.84277 
    1300  20.596274644052037672    20.596275    20.596275   -8403.1592   -7510.4606   -8815.9814   -8883.0355   -3310.1943    323.36095 
    1310  20.596274644052037672    20.596275    20.596275   -8806.1383   -8436.8756   -9057.2558   -8924.2836   -3309.2189    308.24289 
    1320  20.596274644052037672    20.596275    20.596275   -9126.7551   -9332.8806     -9191.39   -8855.9948   -3308.5246    297.48304 
    1330  20.596274644052037672    20.596275    20.596275   -9245.1341   -9842.8876   -9129.1483   -8763.3664   -3308.4406    296.17948 
    1340  20.596274644052037672    20.596275    20.596275   -9185.8877   -9860.7663   -8926.2608   -8770.6359    -3308.905    303.37639 
    1350  20.596274644052037672    20.596275    20.596275     -9068.31   -9503.2458   -8753.6184   -8948.0659   -3309.5234    312.95919 
    1360  20.596274644052037672    20.596275    20.596275   -9038.4961   -9017.4271   -8810.1558   -9287.9054   -3309.8431    317.91458 
    1370  20.596274644052037672    20.596275    20.596275   -9207.0147   -8663.5852   -9220.9363   -9736.5226   -3309.6415    314.79007 
    1380  20.596274644052037672    20.596275    20.596275   -9578.0546   -8590.4404   -9943.6568   -10200.067   -3309.0394    305.46046 
    1390  20.596274644052037672    20.596275    20.596275   -9994.0585   -8763.8183    -10697.04   -10521.317   -3308.3968    295.50188 
    1400  20.596274644052037672    20.596275    20.596275   -10220.688    -9019.785   -11096.186   -10546.092   -3308.0945     290.8175 
    1410  20.596274644052037672    20.596275    20.596275   -10122.155   -9193.0452   -10936.139   -10237.282   -3308.3322     294.5019 
    1420  20.596274644052037672    20.596275    20.596275   -9737.7922    -9200.187   -10308.335   -9704.8549   -3309.0122    305.04131 
    1430  20.596274644052037672    20.596275    20.596275   -9230.9901   -9048.1277   -9497.3858   -9147.4568   -3309.7723    316.82124 
    1440  20.596274644052037672    20.596275    20.596275   -8796.5373   -8823.4182   -8814.4829   -8751.7107   -3310.2061    323.54579 
    1450  20.596274644052037672    20.596275    20.596275   -8550.9697   -8645.7625    -8447.166   -8559.9806   -3310.1427    322.56494 
    1460  20.596274644052037672    20.596275    20.596275   -8493.8607   -8588.8359   -8406.9604   -8485.7857   -3309.7398    316.32264 
    1470  20.596274644052037672    20.596275    20.596275   -8551.7361   -8633.2557   -8569.6596    -8452.293    -3309.331    309.98813 
    1480  20.596274644052037672    20.596275    20.596275   -8613.9453   -8681.2222   -8728.6255   -8431.9883   -3309.1892    307.79106 
    1490  20.596274644052037672    20.596275    20.596275    -8595.636   -8651.0121   -8702.4093   -8433.4866    -3309.362    310.46764 
    1500  20.596274644052037672    20.596275    20.596275   -8548.8299   -8599.3202   -8510.9634   -8536.2062   -3309.6431    314.82365 
    1510  20.596274644052037672    20.596275    20.596275   -8663.2925   -8703.0811   -8411.1387   -8875.6576   -3309.6982    315.67467 
    1520  20.596274644052037672    20.596275    20.596275   -9091.6396   -9083.2393   -8681.6286   -9510.0509   -3309.2846    309.26348 
    1530  20.596274644052037672    20.596275    20.596275    -9774.902   -9671.5052   -9361.1535   -10292.047   -3308.4293    296.00613 
    1540  20.596274644052037672    20.596275    20.596275   -10465.131   -10265.079   -10206.866   -10923.449   -3307.4406    280.68289 
    1550  20.596274644052037672    20.596275    20.596275   -10891.402   -10661.738   -10864.691   -11147.778   -3306.7683    270.26365 
    1560  20.596274644052037672    20.596275    20.596275    -10883.19    -10722.79   -11045.893   -10880.886   -3306.8049    270.83401 
    1570  20.596274644052037672    20.596275    20.596275   -10422.855    -10395.43   -10643.067   -10230.067   -3307.6748     284.3173 
    1580  20.596274644052037672    20.596275    20.596275   -9643.2009   -9742.8894   -9764.6632   -9422.0501   -3309.0961    306.34767 
    1590  20.596274644052037672    20.596275    20.596275   -8799.7809   -8968.4216   -8715.0966   -8715.8245    -3310.472    327.67391 
    1600  20.596274644052037672    20.596275    20.596275   -8174.7064    -8340.909   -7888.6888   -8294.5214   -3311.2123     339.1499 
    1610  20.596274644052037672    20.596275    20.596275   -7937.5705   -8050.0115   -7579.9651   -8182.7348     -3311.07    336.94599 
    1620  20.596274644052037672    20.596275    20.596275   -8077.7588   -8126.1682   -7821.3705   -8285.7378   -3310.2612    324.41287 
    1630  20.596274644052037672    20.596275    20.596275   -8416.1355   -8424.9171   -8354.4415   -8469.0479    -3309.317    309.78056 
    1640  20.596274644052037672    20.596275    20.596275   -8701.2751   -8689.9889   -8794.4778   -8619.3586   -3308.7868     301.5636 
    1650  20.596274644052037672    20.596275    20.596275    -8758.437   -8712.1577   -8870.7261   -8692.4271   -3308.9496    304.08573 
    1660  20.596274644052037672    20.596275    20.596275   -8604.6383   -8476.7038   -8600.5321   -8736.6792   -3309.6551    315.01922 
    1670  20.596274644052037672    20.596275    20.596275   -8445.1529     -8178.73   -8282.3288   -8874.4001   -3310.4009    326.57671 
    1680  20.596274644052037672    20.596275    20.596275   -8536.3555   -8109.3976   -8282.9628    -9216.706   -3310.6309    330.14053 
    1690  20.596274644052037672    20.596275    20.596275   -9008.4843   -8489.7058   -8783.3427   -9752.4045   -3310.0676    321.40881 
    1700  20.596274644052037672    20.596275    20.596275   -9754.3307   -9303.4524   -9642.9752   -10316.565   -3308.8777     302.9673 
    1710  20.596274644052037672    20.596275    20.596275   -10480.817   -10259.111    -10492.68   -10690.661   -3307.6014    283.18711 
    1720  20.596274644052037672    20.596275    20.596275   -10872.131    -10930.79   -10954.731   -10730.872   -3306.8717    271.87845 
    1730  20.596274644052037672    20.596275    20.596275   -10767.537   -11020.875   -10838.104   -10443.633   -3307.0551    274.72047 
    1740  20.596274644052037672    20.596275    20.596275   -10243.366   -10528.057   -10233.104   -9968.9379   -3308.0467    290.09045 
    1750  20.596274644052037672    20.596275    20.596275   -9555.7858   -9710.8241   -9469.5553    -9486.978   -3309.3681    310.57078 
    1760  20.596274644052037672    20.596275    20.596275   -8985.6455   -8917.3557   -8923.2649   -9116.3159   -3310.4497    327.33756 
    1770  20.596274644052037672    20.596275    20.596275   -8721.5903   -8421.4386   -8822.4948   -8920.8374   -3310.8861    334.10193 
    1780  20.596274644052037672    20.596275    20.596275   -8809.4032   -8323.5984    -9174.143   -8930.4683   -3310.5668      329.154 
    1790  20.596274644052037672    20.596275    20.596275   -9175.7647   -8583.4588   -9816.0424   -9127.7929   -3309.6777    315.37366 
    1800  20.596274644052037672    20.596275    20.596275   -9682.7013   -9101.6475   -10489.885   -9456.5715   -3308.5863    298.45823 
    1810  20.596274644052037672    20.596275    20.596275    -10157.19   -9725.4237    -10909.06   -9837.0855   -3307.6826    284.45033 
    1820  20.596274644052037672    20.596275    20.596275   -10425.009   -10246.713   -10862.548   -10165.766   -3307.2469    277.69666 
    1830  20.596274644052037672    20.596275    20.596275   -10361.573   -10470.743   -10300.197   -10313.779   -3307.3743    279.67182 
    1840  20.596274644052037672    20.596275    20.596275   -9945.2526   -10296.218    -9362.654   -10176.886   -3307.9784    289.03565 
    1850  20.596274644052037672    20.596275    20.596275   -9274.1343   -9745.3751   -8345.6924   -9731.3354   -3308.8618    302.72949 
    1860  20.596274644052037672    20.596275    20.596275   -8532.3383   -8957.7627   -7594.8806   -9044.3715   -3309.7949    317.19555 
    1870  20.596274644052037672    20.596275    20.596275   -7938.1134   -8160.3161   -7366.3564   -8287.6678   -3310.5709    329.22542 
    1880  20.596274644052037672    20.596275    20.596275   -7673.7114   -7601.4884   -7702.8209    -7716.825   -3311.0381    336.46915 
    1890  20.596274644052037672    20.596275    20.596275   -7779.8275   -7432.0975   -8386.9685   -7520.4165    -3311.111     337.5998 
    1900  20.596274644052037672    20.596275    20.596275   -8119.4955   -7631.4784   -9050.8641    -7676.144   -3310.7855    332.55451 
    1910  20.596274644052037672    20.596275    20.596275   -8514.1453   -8097.6734   -9414.3031   -8030.4596   -3310.1734    323.06682 
    1920  20.596274644052037672    20.596275    20.596275   -8880.0052    -8741.317    -9431.816   -8466.8827    -3309.489    312.45914 
    1930  20.596274644052037672    20.596275    20.596275   -9189.0218   -9426.2145   -9230.6487    -8910.202   -3308.9391    303.93577 
    1940  20.596274644052037672    20.596275    20.596275   -9430.5318   -9975.3809   -9021.3837   -9294.8308   -3308.6031    298.72493 
    1950  20.596274644052037672    20.596275    20.596275   -9617.2211   -10276.641   -9003.6267   -9571.3958   -3308.4199    295.88395 
    1960  20.596274644052037672    20.596275    20.596275   -9795.1206   -10349.581   -9291.2325   -9744.5482   -3308.2838    293.77536 
    1970  20.596274644052037672    20.596275    20.596275   -10002.558   -10280.858   -9862.1637   -9864.6525   -3308.1349    291.46726 
    1980  20.596274644052037672    20.596275    20.596275   -10207.867   -10126.541    -10529.71   -9967.3501   -3307.9636    288.81186 
    1990  20.596274644052037672    20.596275    20.596275   -10318.199   -9906.2531   -10997.106   -10051.237   -3307.8103    286.43628 
    2000  20.596274644052037672    20.596275    20.596275   -10234.075   -9641.7267   -10988.046   -10072.453   -3307.8093    286.42424 
    2010  20.596274644052037672    20.596275    20.596275   -9878.8609   -9337.6461   -10375.919    -9923.018   -3308.1566    291.81079 
    2020  20.596274644052037672    20.596275    20.596275   -9267.4334   -9000.2805   -9290.9566    -9511.063    -3308.939    303.93926 
    2030  20.596274644052037672    20.596275    20.596275   -8555.7337   -8680.1961   -8091.0697   -8895.9353   -3309.9827     320.1168 
    2040  20.596274644052037672    20.596275    20.596275   -7979.2824   -8454.5101   -7192.8107   -8290.5265   -3310.9003    334.34087 
    2050  20.596274644052037672    20.596275    20.596275   -7714.3102   -8361.4738   -6877.2698   -7904.1871   -3311.3156    340.77823 
    2060  20.596274644052037672    20.596275    20.596275   -7825.1401   -8410.0399   -7213.2912   -7852.0891   -3311.0724    337.00948 
    2070  20.596274644052037672    20.596275    20.596275   -8266.4192   -8605.7405   -8058.2123   -8135.3049   -3310.3022    325.07324 
    2080  20.596274644052037672    20.596275    20.596275   -8875.8171   -8895.7984   -9099.7281   -8631.9248   -3309.3611    310.48722 
    2090  20.596274644052037672    20.596275    20.596275   -9407.0263   -9120.7673   -9972.1144   -9128.1971   -3308.6571    299.57531 
    2100  20.596274644052037672    20.596275    20.596275   -9684.3489   -9152.7067   -10444.631   -9455.7093   -3308.4305    296.06257 
    2110  20.596274644052037672    20.596275    20.596275    -9718.184   -9044.9592    -10507.84   -9601.7522   -3308.6395    299.30099 
    2120  20.596274644052037672    20.596275    20.596275   -9656.5105   -8993.9391   -10311.563   -9664.0295   -3309.0175    305.15883 
    2130  20.596274644052037672    20.596275    20.596275   -9661.6208   -9168.8867    -10069.43   -9746.5462   -3309.2189     308.2781 
    2140  20.596274644052037672    20.596275    20.596275   -9813.0169   -9574.4732   -9958.9649   -9905.6126   -3308.9939    304.79068 
    2150  20.596274644052037672    20.596275    20.596275   -10073.889   -10062.224   -10026.144   -10133.301   -3308.3746    295.19362 
    2160  20.596274644052037672    20.596275    20.596275   -10284.959   -10396.129   -10129.506    -10329.24   -3307.7381    285.33137 
    2170  20.596274644052037672    20.596275    20.596275   -10231.958   -10356.894   -10020.666   -10318.314   -3307.5858    282.97388 
    2180  20.596274644052037672    20.596275    20.596275   -9787.1392   -9867.4934   -9535.4875   -9958.4369   -3308.1681    291.99984 
    2190  20.596274644052037672    20.596275    20.596275    -9028.647   -9056.8913   -8748.4594   -9280.5903   -3309.2998    309.54093 
    2200  20.596274644052037672    20.596275    20.596275   -8243.9246    -8234.435   -7974.5498    -8522.789   -3310.4807     327.8451 
    2210  20.596274644052037672    20.596275    20.596275   -7776.2815   -7735.2212   -7592.2897   -8001.3337   -3311.1557    338.30678 
    2220  20.596274644052037672    20.596275    20.596275    -7838.284   -7741.9303   -7832.8402   -7940.0815   -3310.9708    335.44136 
    2230  20.596274644052037672    20.596275    20.596275   -8396.7949   -8211.3422   -8628.2689   -8350.7735   -3309.9768    320.03607 
    2240  20.596274644052037672    20.596275    20.596275   -9197.9403   -8928.3184   -9626.1478   -9039.3546   -3308.6658    299.71823 
    2250  20.596274644052037672    20.596275    20.596275   -9909.7647   -9627.2388   -10399.321   -9702.7337   -3307.7063    284.84697 
    2260  20.596274644052037672    20.596275    20.596275   -10279.007   -10092.906   -10675.059   -10069.056    -3307.508    281.77327 
    2270  20.596274644052037672    20.596275    20.596275   -10229.646   -10207.528   -10439.274   -10042.134    -3307.985    289.16449 
    2280  20.596274644052037672    20.596275    20.596275   -9905.6994    -10015.71    -9928.931   -9772.4573   -3308.6955    300.17621 
    2290  20.596274644052037672    20.596275    20.596275   -9578.4315   -9718.2698   -9483.4177    -9533.607   -3309.1827    307.72841 
    2300  20.596274644052037672    20.596275    20.596275   -9411.7589   -9502.4748     -9281.41   -9451.3921   -3309.2403    308.62278 
    2310  20.596274644052037672    20.596275    20.596275   -9337.3445   -9378.9068   -9227.4893   -9405.6373   -3309.0041    304.96534 
    2320  20.596274644052037672    20.596275    20.596275    -9156.422   -9200.2891   -9081.4613   -9187.5157   -3308.8755    302.97617 
    2330  20.596274644052037672    20.596275    20.596275   -8729.0742   -8834.6283   -8667.4617   -8685.1325   -3309.2548    308.85808 
    2340  20.596274644052037672    20.596275    20.596275   -8119.4337   -8331.2156   -8039.0809   -7988.0047   -3310.1988    323.49002 
    2350  20.596274644052037672    20.596275    20.596275   -7614.2101   -7939.6364   -7501.0435   -7401.9504   -3311.2726    340.13268 
    2360  20.596274644052037672    20.596275    20.596275   -7578.0022   -7967.5781    -7442.247   -7324.1814    -3311.766    347.77752 
    2370  20.596274644052037672    20.596275    20.596275   -8238.4295   -8600.3328   -8104.3271   -8010.6287    -3311.142    338.10316 
    2380  20.596274644052037672    20.596275    20.596275   -9479.7667   -9706.2245   -9395.2477   -9337.8279   -3309.4079    311.22546 
    2390  20.596274644052037672    20.596275    20.596275   -10840.224   -10814.812   -10884.739   -10821.121   -3307.1909    276.86371 
    2400  20.596274644052037672    20.596275    20.596275   -11740.536   -11379.856   -11977.771   -11863.981   -3305.4835     250.4019 
    2410  20.596274644052037672    20.596275    20.596275   -11768.125   -11094.968   -12189.926   -12019.481   -3305.1647    245.46297 
    2420  20.596274644052037672    20.596275    20.596275   -10844.535   -10012.529   -11362.237   -11158.839   -3306.5117    266.34229 
    2430  20.596274644052037672    20.596275    20.596275   -9267.4842   -8509.4026   -9741.5357   -9551.5144   -3309.0048    304.98405 
    2440  20.596274644052037672    20.596275    20.596275   -7585.4688   -7120.6035   -7876.4029   -7759.3999   -3311.6037    345.26858 
    2450  20.596274644052037672    20.596275    20.596275   -6358.2562   -6299.5932    -6387.698   -6387.4775   -3313.3098    371.71503 
    2460  20.596274644052037672    20.596275    20.596275    -5935.932   -6238.1513   -5720.3242   -5849.3204    -3313.603    376.26246 
    2470  20.596274644052037672    20.596275    20.596275   -6367.6269   -6860.6192   -5990.0351   -6252.2264   -3312.5479    359.91085 
    2480  20.596274644052037672    20.596275    20.596275    -7435.788   -7914.5941   -6979.0809   -7413.6891   -3310.6745    330.87514 
    2490  20.596274644052037672    20.596275    20.596275   -8765.4567   -9066.9506   -8273.4077   -8956.0117   -3308.7546    301.11588 
    2500  20.596274644052037672    20.596275    20.596275   -9987.1627   -10032.061    -9484.847   -10444.581   -3307.4565    280.99439 
    2510  20.596274644052037672    20.596275    20.596275   -10859.155   -10672.342   -10385.265   -11519.858   -3307.0136    274.12483 
    2520  20.596274644052037672    20.596275    20.596275   -11288.906     -10975.2   -10919.114   -11972.405   -3307.1842    276.76614 
    2530  20.596274644052037672    20.596275    20.596275   -11312.267    -10985.03    -11140.09   -11811.682   -3307.5316    282.15005 
    2540  20.596274644052037672    20.596275    20.596275    -11087.29   -10814.028   -11150.334   -11297.508    -3307.737    285.33459 
    2550  20.596274644052037672    20.596275    20.596275   -10821.883   -10629.928   -11049.684   -10786.035   -3307.7323    285.26397 
    2560  20.596274644052037672    20.596275    20.596275   -10626.473   -10525.443   -10871.429   -10482.548   -3307.6585    284.12284 
    2570  20.596274644052037672    20.596275    20.596275   -10442.899   -10402.471   -10573.479   -10352.747   -3307.7327    285.27537 
    2580  20.596274644052037672    20.596275    20.596275   -10147.176   -10082.965   -10126.427   -10232.136    -3308.091    290.82943 
    2590  20.596274644052037672    20.596275    20.596275   -9702.2233    -9539.066   -9594.6478    -9972.956   -3308.6841    300.02352 
    2600  20.596274644052037672    20.596275    20.596275   -9199.2776   -8942.8947   -9124.0159   -9530.9224   -3309.3057    309.66012 
    2610  20.596274644052037672    20.596275    20.596275   -8758.3551    -8497.937   -8818.7551   -8958.3731   -3309.7381    316.36353 
    2620  20.596274644052037672    20.596275    20.596275   -8462.8225   -8315.5943   -8690.4435   -8382.4296   -3309.9201    319.18765 
    2630  20.596274644052037672    20.596275    20.596275   -8326.5563   -8363.0408   -8680.0789   -7936.5491   -3309.9873    320.23209 
    2640  20.596274644052037672    20.596275    20.596275   -8288.5804   -8491.4253    -8680.177   -7694.1389   -3310.1208    322.30382 
    2650  20.596274644052037672    20.596275    20.596275   -8278.3393     -8544.74   -8616.1497   -7674.1281   -3310.3548    325.93054 
    2660  20.596274644052037672    20.596275    20.596275   -8290.0325   -8462.3662   -8535.8524   -7871.8787   -3310.5449    328.87744 
    2670  20.596274644052037672    20.596275    20.596275   -8366.2257   -8287.5886   -8553.6792   -8257.4092   -3310.5174    328.45062 
    2680  20.596274644052037672    20.596275    20.596275   -8547.1526   -8116.5403   -8747.2284    -8777.689   -3310.2268    323.94773 
    2690  20.596274644052037672    20.596275    20.596275   -8810.5214    -8021.899   -9090.2295   -9319.4356     -3309.79    317.17857 
    2700  20.596274644052037672    20.596275    20.596275   -9066.3392    -8023.585   -9452.4736   -9722.9591   -3309.4057     311.2227 
    2710  20.596274644052037672    20.596275    20.596275   -9239.6131   -8121.3356   -9695.1328   -9902.3709   -3309.2302    308.50225 
    2720  20.596274644052037672    20.596275    20.596275   -9341.0571   -8330.5611   -9788.7477   -9903.8624    -3309.263     309.0092 
    2730  20.596274644052037672    20.596275    20.596275   -9466.8782   -8708.7125   -9835.7058   -9856.2162   -3309.3163    309.83411 
    2740  20.596274644052037672    20.596275    20.596275   -9712.9983   -9307.6354   -9958.6959   -9872.6637   -3309.1331    306.99349 
    2750  20.596274644052037672    20.596275    20.596275   -10078.808   -10076.272   -10186.609   -9973.5427   -3308.5937    298.63241 
    2760  20.596274644052037672    20.596275    20.596275   -10449.062   -10821.066   -10431.523   -10094.597   -3307.8449    287.02869 
    2770  20.596274644052037672    20.596275    20.596275   -10625.439   -11232.527   -10509.812   -10133.978   -3307.2557    277.89922 
    2780  20.596274644052037672    20.596275    20.596275   -10421.998   -11017.366   -10241.915   -10006.712   -3307.2323    277.53886 
    2790  20.596274644052037672    20.596275    20.596275   -9786.3364   -10089.125   -9594.4341   -9675.4499   -3307.9796    289.12391 
    2800  20.596274644052037672    20.596275    20.596275   -8883.4608   -8713.0554   -8756.9351   -9180.3918   -3309.3267    310.00477 
    2810  20.596274644052037672    20.596275    20.596275   -8061.6359   -7442.2008   -8075.6007   -8667.1062   -3310.7461    332.00538 
    2820  20.596274644052037672    20.596275    20.596275   -7691.2729   -6822.0183   -7887.7923    -8364.008   -3311.5951    345.16347 
    2830  20.596274644052037672    20.596275    20.596275   -7950.2303   -7071.3137     -8317.91   -8461.4672   -3311.4365    342.70621 
    2840  20.596274644052037672    20.596275    20.596275   -8741.4221      -8030.9   -9179.3998   -9013.9666   -3310.2674    324.58538 
    2850  20.596274644052037672    20.596275    20.596275   -9753.7997   -9306.5688   -10069.435   -9885.3953   -3308.5696    298.27245 
    2860  20.596274644052037672    20.596275    20.596275   -10559.668   -10395.705   -10571.024   -10712.276   -3307.1252    275.88712 
    2870  20.596274644052037672    20.596275    20.596275    -10808.08   -10883.961    -10462.81    -11077.47   -3306.6122    267.93575 
    2880  20.596274644052037672    20.596275    20.596275   -10422.228   -10651.647   -9822.5402   -10792.495    -3307.213    277.24701 
    2890  20.596274644052037672    20.596275    20.596275   -9620.4155   -9897.8485   -8977.1301   -9986.2679   -3308.5351    297.73874 
    2900  20.596274644052037672    20.596275    20.596275   -8784.6588   -9003.2342   -8353.0566   -8997.6858   -3309.8864     318.6829 
    2910  20.596274644052037672    20.596275    20.596275   -8274.1532   -8361.8782   -8254.8416   -8205.7399   -3310.6669     330.7834 
    2920  20.596274644052037672    20.596275    20.596275   -8245.1515     -8211.65   -8659.2274   -7864.5772   -3310.6368    330.31865 
    2930  20.596274644052037672    20.596275    20.596275   -8575.0837   -8512.2089   -9228.7287   -7984.3135   -3309.9684    319.96231 
    2940  20.596274644052037672    20.596275    20.596275   -8994.0263   -9012.3094   -9594.9874   -8374.7821   -3309.1025    306.54204 
    2950  20.596274644052037672    20.596275    20.596275   -9310.5646   -9454.9051   -9639.9329    -8836.856   -3308.4848    296.96845 
    2960  20.596274644052037672    20.596275    20.596275   -9494.2755   -9712.7021   -9510.4317   -9259.6927   -3308.3311    294.58542 
    2970  20.596274644052037672    20.596275    20.596275   -9588.7983   -9767.1585   -9418.2625   -9580.9739   -3308.5506    297.98676 
    2980  20.596274644052037672    20.596275    20.596275    -9628.528   -9642.7642   -9463.4993   -9779.3204     -3308.85    302.62696 
    2990  20.596274644052037672    20.596275    20.596275   -9656.7566   -9423.4114   -9638.3575   -9908.5009   -3308.9495    304.17005 
    3000  20.596274644052037672    20.596275    20.596275   -9690.1311   -9211.7981    -9861.672   -9996.9233    -3308.792    301.73104 
    3010  20.596274644052037672    20.596275    20.596275   -9659.5085    -9042.452   -9978.5918   -9957.4816   -3308.5945    298.67303 
    3020  20.596274644052037672    20.596275    20.596275   -9440.2718   -8857.3782   -9801.6272   -9661.8101   -3308.6857    300.08943 
    3030  20.596274644052037672    20.596275    20.596275     -8955.58   -8577.1216   -9226.1209   -9063.4975    -3309.251    308.85371 
    3040  20.596274644052037672    20.596275    20.596275   -8282.4067   -8232.4626   -8350.5251   -8264.2323   -3310.1671    323.05299 
    3050  20.596274644052037672    20.596275    20.596275   -7662.3222   -7991.8683   -7487.7559   -7507.3424   -3311.0387    336.56251 
    3060  20.596274644052037672    20.596275    20.596275   -7387.5077   -8035.9719   -7028.7515   -7097.7996   -3311.4076    342.28099 
    3070  20.596274644052037672    20.596275    20.596275   -7648.2215    -8441.435   -7230.5555   -7272.6739   -3310.9995    335.95524 
    3080  20.596274644052037672    20.596275    20.596275   -8402.2102   -9119.2662   -8043.8004   -8043.5639   -3309.8874    318.71803 
    3090  20.596274644052037672    20.596275    20.596275   -9361.9738   -9811.5619    -9130.152   -9144.2077   -3308.5067    297.32052 
    3100  20.596274644052037672    20.596275    20.596275   -10145.715    -10208.96    -10067.71   -10160.475   -3307.4744    281.32082 
    3110  20.596274644052037672    20.596275    20.596275   -10504.106   -10160.841   -10598.433   -10753.044   -3307.2374    277.64713 
    3120  20.596274644052037672    20.596275    20.596275   -10431.984   -9781.2084    -10727.54   -10787.204   -3307.7857    286.14507 
    3130  20.596274644052037672    20.596275    20.596275   -10110.268   -9357.9493   -10631.682   -10341.172   -3308.6819    300.03382 
    3140  20.596274644052037672    20.596275    20.596275    -9767.511   -9162.2867   -10478.794   -9661.4524   -3309.3873    310.96857 
    3150  20.596274644052037672    20.596275    20.596275   -9541.5609   -9278.4139    -10307.18   -9039.0891   -3309.6101    314.42474 
    3160  20.596274644052037672    20.596275    20.596275   -9447.2851   -9590.2982   -10060.074   -8691.4831   -3309.4224    311.51852 
    3170  20.596274644052037672    20.596275    20.596275   -9410.2288   -9894.8403   -9669.8866   -8665.9595   -3309.1341    307.05354 
    3180  20.596274644052037672    20.596275    20.596275   -9314.6459   -9996.5695   -9131.5942   -8815.7739   -3309.0593    305.89522 
    3190  20.596274644052037672    20.596275    20.596275   -9104.7574   -9790.0109   -8566.1351   -8958.1263   -3309.3247     310.0099 
    3200  20.596274644052037672    20.596275    20.596275   -8836.4325   -9321.4422    -8171.824   -9016.0314   -3309.8142    317.59788 
    3210  20.596274644052037672    20.596275    20.596275   -8635.6402   -8784.4637   -8121.3978   -9001.0592   -3310.2354    324.12488 
    3220  20.596274644052037672    20.596275    20.596275   -8622.4239   -8439.2853   -8494.5566   -8933.4297   -3310.2726    324.70147 
    3230  20.596274644052037672    20.596275    20.596275   -8839.6874   -8464.9932   -9212.4295   -8841.6394   -3309.7841    317.13084 
    3240  20.596274644052037672    20.596275    20.596275    -9247.179    -8881.271   -10040.722   -8819.5445   -3308.9251    303.81694 
    3250  20.596274644052037672    20.596275    20.596275   -9756.0918    -9580.228   -10701.398   -8986.6494   -3308.0728    290.60738 
    3260  20.596274644052037672    20.596275    20.596275     -10219.7   -10325.137    -10990.71   -9343.2523   -3307.5849    283.04616 
    3270  20.596274644052037672    20.596275    20.596275   -10460.365   -10787.884   -10858.814   -9734.3963   -3307.5813    282.98983 
    3280  20.596274644052037672    20.596275    20.596275   -10381.851   -10732.903    -10422.44   -9990.2115   -3307.9193    288.22789 
    3290  20.596274644052037672    20.596275    20.596275   -10034.544   -10190.443   -9884.4017   -10028.789   -3308.3521    294.93831 
    3300  20.596274644052037672    20.596275    20.596275   -9568.2936   -9438.8058   -9421.6328   -9844.4422   -3308.7191    300.62849 
    3310  20.596274644052037672    20.596275    20.596275   -9108.4958   -8780.6703   -9090.3867   -9454.4304   -3309.0282     305.4225 
    3320  20.596274644052037672    20.596275    20.596275    -8678.532   -8351.5474   -8803.8203   -8880.2284   -3309.4076    311.30784 
    3330  20.596274644052037672    20.596275    20.596275   -8256.2155   -8134.8135   -8447.6443   -8186.1887   -3309.9745    320.09815 
    3340  20.596274644052037672    20.596275    20.596275    -7886.909   -8090.7172   -8027.3109   -7542.6989   -3310.6933    331.24006 
    3350  20.596274644052037672    20.596275    20.596275   -7716.7536   -8225.3726   -7696.9533    -7227.935   -3311.3093    340.78798 
    3360  20.596274644052037672    20.596275    20.596275    -7920.022   -8575.0189   -7684.7935   -7500.2535   -3311.4353    342.73868 
    3370  20.596274644052037672    20.596275    20.596275   -8568.4629   -9160.8851   -8143.5543   -8400.9492   -3310.7953    332.81857 
    3380  20.596274644052037672    20.596275    20.596275   -9544.6323   -9917.0064   -9030.1618   -9686.7288   -3309.4402    311.81399 
    3390  20.596274644052037672    20.596275    20.596275   -10578.136   -10678.486   -10107.499   -10948.422   -3307.7583    285.74561 
    3400  20.596274644052037672    20.596275    20.596275   -11356.067   -11247.776   -11035.701   -11784.724   -3306.3365    263.70843 
    3410  20.596274644052037672    20.596275    20.596275   -11636.345   -11450.564   -11523.833   -11934.639   -3305.7451    254.54356 
    3420  20.596274644052037672    20.596275    20.596275   -11326.076   -11175.808   -11445.358   -11357.062   -3306.2635    262.57952 
    3430  20.596274644052037672    20.596275    20.596275   -10504.812   -10410.834   -10855.338   -10248.263   -3307.6837    284.59258 
    3440  20.596274644052037672    20.596275    20.596275   -9404.3986   -9281.0746   -9953.5494   -8978.5718   -3309.4054    311.27974 
    3450  20.596274644052037672    20.596275    20.596275   -8325.4778   -8075.0367   -8969.8664   -7931.5302   -3310.7892    332.73247 
    3460  20.596274644052037672    20.596275    20.596275   -7538.7612   -7169.6257   -8088.9772   -7357.6808   -3311.4714    343.31002 
    3470  20.596274644052037672    20.596275    20.596275   -7188.8084    -6809.194   -7445.5954   -7311.6359   -3311.4498    342.97896 
    3480  20.596274644052037672    20.596275    20.596275   -7225.5606   -6945.8793   -7085.6481   -7645.1542   -3310.9907     335.8649 
    3490  20.596274644052037672    20.596275    20.596275   -7455.6919   -7322.4656   -6963.7606   -8080.8496   -3310.4609     327.6561 
    3500  20.596274644052037672    20.596275    20.596275   -7694.1223   -7707.6903   -7028.9148   -8345.7619   -3310.1449    322.75755 
    3510  20.596274644052037672    20.596275    20.596275   -7882.0319   -8038.7265    -7288.431   -8318.9383   -3310.0959    321.99798 
    3520  20.596274644052037672    20.596275    20.596275   -8113.0886   -8395.3281   -7805.4435   -8138.4942   -3310.1088    322.19539 
    3530  20.596274644052037672    20.596275    20.596275   -8548.7418   -8890.2519   -8626.6089   -8129.3646   -3309.8658    318.42691 
    3540  20.596274644052037672    20.596275    20.596275   -9248.0677   -9530.3801   -9670.4785   -8543.3444   -3309.1839    307.85777 
    3550  20.596274644052037672    20.596275    20.596275   -10083.635   -10194.887   -10703.629   -9352.3878   -3308.1749    292.21853 
    3560  20.596274644052037672    20.596275    20.596275   -10816.908   -10740.647   -11440.016   -10270.061   -3307.1961     277.0482 
    3570  20.596274644052037672    20.596275    20.596275   -11240.168   -11064.256   -11711.913   -10944.334   -3306.6501    268.58609 
    3580  20.596274644052037672    20.596275    20.596275    -11262.85   -11089.766   -11551.506   -11147.277   -3306.7633    270.34254 
    3590  20.596274644052037672    20.596275    20.596275   -10921.831   -10789.826   -11117.394   -10858.275   -3307.4545    281.05496 
    3600  20.596274644052037672    20.596275    20.596275   -10363.976   -10251.223   -10605.691   -10235.012   -3308.3841    295.46573 
    3610  20.596274644052037672    20.596275    20.596275   -9791.4098   -9674.2825   -10183.869   -9516.0783   -3309.1703    307.65374 
    3620  20.596274644052037672    20.596275    20.596275   -9360.9705   -9250.8568   -9913.5108   -8918.5439   -3309.5931    314.20923 
    3630  20.596274644052037672    20.596275    20.596275   -9112.6516   -9040.5769   -9728.2185   -8569.1595    -3309.656    315.18769 
    3640  20.596274644052037672    20.596275    20.596275   -8988.9292    -8984.926   -9515.4107   -8466.4507    -3309.536    313.33113 
    3650  20.596274644052037672    20.596275    20.596275   -8897.5599   -8995.0873   -9218.5522   -8479.0403   -3309.4784    312.44121 
    3660  20.596274644052037672    20.596275    20.596275   -8765.0193   -8992.8432   -8865.1896   -8437.0252   -3309.6478    315.06682 
    3670  20.596274644052037672    20.596275    20.596275      -8593.5    -8929.761   -8555.7208   -8295.0183   -3310.0031    320.57505 
    3680  20.596274644052037672    20.596275    20.596275   -8469.9663   -8812.9099   -8412.2307   -8184.7582   -3310.3135    325.38489 
    3690  20.596274644052037672    20.596275    20.596275   -8520.2467   -8741.3314   -8514.3809   -8305.0277   -3310.3032    325.22489 
    3700  20.596274644052037672    20.596275    20.596275   -8846.3464   -8886.8831   -8877.5399   -8774.6162   -3309.8146     317.6514 
    3710  20.596274644052037672    20.596275    20.596275   -9445.9509    -9334.294    -9448.836   -9554.7226    -3308.902    303.50714 
    3720  20.596274644052037672    20.596275    20.596275   -10153.788   -9927.0081   -10089.189   -10445.166   -3307.8503    287.20712 
    3730  20.596274644052037672    20.596275    20.596275   -10669.669   -10326.037   -10559.662   -11123.307   -3307.1052    275.66044 
    3740  20.596274644052037672    20.596275    20.596275   -10706.506   -10250.251   -10606.638   -11262.628   -3307.0843    275.33941 
    3750  20.596274644052037672    20.596275    20.596275   -10163.656   -9669.7632   -10117.595   -10703.611   -3307.9422    288.63833 
    3760  20.596274644052037672    20.596275    20.596275   -9190.9084   -8809.4758   -9195.5895   -9567.6599   -3309.4433    311.90704 
    3770  20.596274644052037672    20.596275    20.596275   -8134.0417   -8032.7871   -8123.0964   -8246.2417   -3311.0315    336.52523 
    3780  20.596274644052037672    20.596275    20.596275    -7409.722   -7692.6064   -7284.4319   -7252.1277   -3312.0732    352.67194 
    3790  20.596274644052037672    20.596275    20.596275   -7317.4559   -7949.4014   -7048.9903   -6953.9761   -3312.1557     353.9523 
    3800  20.596274644052037672    20.596275    20.596275   -7864.1449   -8658.2968   -7562.4702   -7371.6678   -3311.2648    340.14471 
    3810  20.596274644052037672    20.596275    20.596275   -8784.4702   -9472.3372   -8628.6375    -8252.436   -3309.7564    316.76523 
    3820  20.596274644052037672    20.596275    20.596275   -9685.4549   -10014.152   -9806.1815   -9236.0312   -3308.1919    292.51739 
    3830  20.596274644052037672    20.596275    20.596275   -10240.891   -10056.669   -10659.142   -10006.861   -3307.1296    276.05186 
    3840  20.596274644052037672    20.596275    20.596275   -10344.334    -9656.519   -10969.753    -10406.73   -3306.9088    272.62854 
    3850  20.596274644052037672    20.596275    20.596275   -10111.837   -9117.0454   -10769.444   -10449.022   -3307.5005     281.8003 
    3860  20.596274644052037672    20.596275    20.596275   -9758.5034   -8776.3446    -10248.27   -10250.896   -3308.5239    297.66243 
    3870  20.596274644052037672    20.596275    20.596275   -9449.3877   -8775.0684   -9643.8357   -9929.2589   -3309.4466    311.96537 
    3880  20.596274644052037672    20.596275    20.596275   -9240.8572   -9021.4871   -9148.6272   -9552.4572   -3309.8746    318.60108 
    3890  20.596274644052037672    20.596275    20.596275   -9140.8516   -9356.8776   -8881.1863   -9184.4908   -3309.7539    316.73316 
    3900  20.596274644052037672    20.596275    20.596275   -9126.5292   -9641.8286   -8858.1294   -8879.6295   -3309.3493    310.46566 
    3910  20.596274644052037672    20.596275    20.596275   -9116.9005   -9742.2957   -8962.2135   -8646.1922   -3309.0289    305.50188 
    3920  20.596274644052037672    20.596275    20.596275   -9037.5198   -9596.2275   -9035.8488   -8480.4832   -3309.0168    305.31544 
    3930  20.596274644052037672    20.596275    20.596275   -8918.5349   -9299.6079   -9037.3591   -8418.6378   -3309.2919    309.57915 
    3940  20.596274644052037672    20.596275    20.596275   -8876.7086   -9048.9993   -9051.7431   -8529.3833   -3309.6546    315.20066 
    3950  20.596274644052037672    20.596275    20.596275   -9021.2902   -9011.2095   -9188.9517   -8863.7094    -3309.837    318.02734 
    3960  20.596274644052037672    20.596275    20.596275   -9366.6804   -9213.3743   -9504.5434   -9382.1234   -3309.6125    314.54765 
    3970  20.596274644052037672    20.596275    20.596275   -9820.1186   -9524.2242   -9988.1922   -9947.9393   -3308.9449    304.20207 
    3980  20.596274644052037672    20.596275    20.596275    -10239.37   -9763.8179   -10557.636   -10396.657   -3308.0926    290.99263 
    3990  20.596274644052037672    20.596275    20.596275    -10492.72   -9827.3857    -11049.35   -10601.424   -3307.4901    281.65716 
    4000  20.596274644052037672    20.596275    20.596275   -10502.697    -9728.594   -11259.471   -10520.026   -3307.4507    281.04719 
    4010  20.596274644052037672    20.596275    20.596275   -10257.717   -9543.2888   -11030.193    -10199.67   -3307.9665    289.04135 
    4020  20.596274644052037672    20.596275    20.596275   -9814.9476   -9361.5848   -10348.375   -9734.8828   -3308.7659    301.43325 
    4030  20.596274644052037672    20.596275    20.596275   -9315.0359     -9306.47   -9410.2169   -9228.4208   -3309.5064    312.91205 
    4040  20.596274644052037672    20.596275    20.596275   -8919.8607   -9436.2532   -8545.8979    -8777.431   -3309.9402     319.6389 
    4050  20.596274644052037672    20.596275    20.596275   -8692.2036   -9615.4591   -8014.6735   -8446.4782   -3310.0175    320.83996 
    4060  20.596274644052037672    20.596275    20.596275   -8558.4897   -9600.9749   -7850.4008   -8224.0932   -3309.9006    319.03151 
    4070  20.596274644052037672    20.596275    20.596275   -8413.1724   -9239.6796    -7940.369   -8059.4686   -3309.8547    318.32368 
    4080  20.596274644052037672    20.596275    20.596275   -8233.8905   -8576.1138   -8175.6431   -7949.9145   -3310.0566    321.45408 
    4090  20.596274644052037672    20.596275    20.596275   -8109.5693   -7847.3636   -8500.4983    -7980.846   -3310.4469    327.50295 
    4100  20.596274644052037672    20.596275    20.596275   -8184.0196    -7383.445    -8899.627   -8268.9869   -3310.7377    332.00945 
    4110  20.596274644052037672    20.596275    20.596275   -8576.9865   -7450.2087   -9389.3766   -8891.3741    -3310.588    329.68892 
    4120  20.596274644052037672    20.596275    20.596275   -9293.0117   -8094.2802   -9968.7625   -9815.9922   -3309.8379    318.06264 
    4130  20.596274644052037672    20.596275    20.596275   -10151.149   -9122.2407   -10513.411   -10817.796   -3308.6499    299.65014 
    4140  20.596274644052037672    20.596275    20.596275   -10823.308   -10198.668   -10773.399   -11497.858   -3307.4769    281.46986 
    4150  20.596274644052037672    20.596275    20.596275   -10996.613   -10957.026   -10550.028   -11482.784   -3306.8554      271.839 
    4160  20.596274644052037672    20.596275    20.596275   -10566.006   -11154.563   -9848.9953   -10694.461   -3307.1093    275.77609 
    4170  20.596274644052037672    20.596275    20.596275   -9700.9015   -10789.176   -8878.4819   -9435.0466   -3308.1516    291.93193 
    4180  20.596274644052037672    20.596275    20.596275   -8765.7283   -10095.717   -7973.2479   -8228.2194   -3309.5196    313.13661 
    4190  20.596274644052037672    20.596275    20.596275   -8154.2236   -9424.3195   -7481.0303   -7557.3209   -3310.5907    329.73805 
    4200  20.596274644052037672    20.596275    20.596275   -8101.7692   -9076.3727   -7619.2287   -7609.7062   -3310.8703    334.07335 
    4210  20.596274644052037672    20.596275    20.596275   -8554.8521   -9136.0594   -8336.2475   -8192.2493   -3310.2592    324.60508 
    4220  20.596274644052037672    20.596275    20.596275   -9206.0148   -9413.6472   -9311.8588   -8892.5385   -3309.1236    307.00541 
    4230  20.596274644052037672    20.596275    20.596275   -9750.6704   -9668.6455   -10190.731   -9392.6351   -3308.0594    290.51195 
    4240  20.596274644052037672    20.596275    20.596275    -10046.91   -9783.7814    -10729.68   -9627.2693   -3307.5289    282.28931 
    4250  20.596274644052037672    20.596275    20.596275   -10070.336   -9720.5899   -10794.642   -9695.7761   -3307.6434    284.06324 
    4260  20.596274644052037672    20.596275    20.596275   -9870.8282   -9464.8007    -10415.03   -9732.6538   -3308.2054    292.77558 
    4270  20.596274644052037672    20.596275    20.596275   -9546.6363   -9054.2496   -9801.9637   -9783.6957   -3308.9028     303.5857 
    4280  20.596274644052037672    20.596275    20.596275   -9197.1581   -8612.2585   -9231.3927   -9747.8232   -3309.4981    312.81656 
    4290  20.596274644052037672    20.596275    20.596275   -8848.4366   -8234.7276   -8846.4432   -9464.1392   -3309.9183    319.33303 
    4300  20.596274644052037672    20.596275    20.596275   -8476.5901   -7919.8732   -8624.9992   -8884.8978   -3310.2163    323.95618 
    4310  20.596274644052037672    20.596275    20.596275   -8125.3714   -7680.6319   -8521.0875   -8174.3948   -3310.4678    327.85549 
    4320  20.596274644052037672    20.596275    20.596275   -7942.8279   -7640.1822   -8528.5505   -7659.7508   -3310.6562    330.77684 
    4330  20.596274644052037672    20.596275    20.596275   -8097.8097   -7956.4612   -8671.7536   -7665.2142   -3310.6236    330.27035 
    4340  20.596274644052037672    20.596275    20.596275   -8654.5666   -8654.8589   -8982.1079   -8326.7329   -3310.1644    323.15261 
    4350  20.596274644052037672    20.596275    20.596275   -9497.8807   -9577.8591   -9432.1889   -9483.5942   -3309.2228    308.55794 
    4360  20.596274644052037672    20.596275    20.596275   -10364.155   -10467.198    -9895.762   -10729.505   -3308.0279    290.03834 
    4370  20.596274644052037672    20.596275    20.596275   -10962.008   -11065.937   -10217.733   -11602.355   -3307.0397    274.72312 
    4380  20.596274644052037672    20.596275    20.596275   -11091.235   -11190.809   -10299.579   -11783.317   -3306.7363    270.02297 
    4390  20.596274644052037672    20.596275    20.596275   -10713.857   -10806.581   -10131.087   -11203.903   -3307.3597    279.68748 
    4400  20.596274644052037672    20.596275    20.596275   -9964.5737   -10058.648   -9777.7286   -10057.344   -3308.7412    301.10055 
    4410  20.596274644052037672    20.596275    20.596275   -9114.1512   -9215.8852   -9367.3408   -8759.2274   -3310.3226    325.61399 
    4420  20.596274644052037672    20.596275    20.596275   -8475.8639   -8565.9978   -9062.5666   -7799.0274   -3311.4009    342.32672 
    4430  20.596274644052037672    20.596275    20.596275   -8302.9122   -8366.5181   -9005.0324    -7537.186   -3311.4684    343.37439 
    4440  20.596274644052037672    20.596275    20.596275   -8683.4827   -8763.0203   -9241.6984   -8045.7294   -3310.4688    327.88345 
    4450  20.596274644052037672    20.596275    20.596275   -9461.2423   -9625.8468   -9689.3485   -9068.5318   -3308.8366    302.58687 
    4460  20.596274644052037672    20.596275    20.596275   -10271.188   -10520.103   -10154.764   -10138.696   -3307.2902    278.61948 
    4470  20.596274644052037672    20.596275    20.596275    -10726.98   -10949.201   -10425.308   -10806.431   -3306.4828    266.10489 
    4480  20.596274644052037672    20.596275    20.596275   -10616.504   -10659.416   -10370.687   -10819.411    -3306.706    269.56532 
    4490  20.596274644052037672    20.596275    20.596275   -9994.4193   -9770.8453   -10012.384   -10200.029   -3307.7945    286.43703 
    4500  20.596274644052037672    20.596275    20.596275   -9121.5144    -8660.703   -9499.7681   -9204.0722   -3309.2413    308.86333 
    4510  20.596274644052037672    20.596275    20.596275   -8306.4554   -7735.5159   -8993.1437   -8190.7065   -3310.4563    327.69763 
    4520  20.596274644052037672    20.596275    20.596275   -7776.5579   -7261.8203   -8590.7442   -7477.1093   -3311.0592    337.04658 
    4530  20.596274644052037672    20.596275    20.596275   -7621.2508   -7291.4695   -8332.8574   -7239.4255   -3311.0338    336.65729 
    4540  20.596274644052037672    20.596275    20.596275   -7792.0147   -7679.3759   -8210.5594   -7486.1088   -3310.6363    330.49909 
    4550  20.596274644052037672    20.596275    20.596275   -8148.6554    -8186.677   -8192.0854   -8067.2037   -3310.1616    323.14209 
    4560  20.596274644052037672    20.596275    20.596275   -8550.4757   -8626.9207   -8286.9077   -8737.5989    -3309.759    316.90065 
    4570  20.596274644052037672    20.596275    20.596275   -8940.8637   -8950.1918   -8568.2597   -9304.1397   -3309.4079    311.45889 
    4580  20.596274644052037672    20.596275    20.596275   -9342.3326   -9206.8455   -9100.2481   -9719.9042   -3309.0185    305.42229 
    4590  20.596274644052037672    20.596275    20.596275   -9759.1778   -9439.5695   -9826.1427   -10011.821   -3308.5449    298.08177 
    4600  20.596274644052037672    20.596275    20.596275   -10105.362   -9609.1748   -10529.439   -10177.472   -3308.0637    290.62422 
    4610  20.596274644052037672    20.596275    20.596275   -10245.152   -9633.5553   -10917.272   -10184.627   -3307.7877    286.34895 
    4620  20.596274644052037672    20.596275    20.596275   -10098.697   -9480.0414   -10791.855   -10024.195    -3307.956    288.96095 
    4630  20.596274644052037672    20.596275    20.596275   -9704.5859   -9194.7963   -10199.411   -9719.5502   -3308.6206    299.26362 
    4640  20.596274644052037672    20.596275    20.596275   -9210.5164   -8880.6941   -9415.8891   -9334.9661   -3309.5074    313.00848 
    4650  20.596274644052037672    20.596275    20.596275   -8817.6057   -8667.5518   -8777.5082   -9007.7569   -3310.1386    322.79189 
    4660  20.596274644052037672    20.596275    20.596275   -8709.9506   -8687.3896   -8522.9486   -8919.5136   -3310.1422    322.84949 
    4670  20.596274644052037672    20.596275    20.596275   -8966.8016   -9030.3712   -8714.3344   -9155.6991   -3309.4916    312.76648 
    4680  20.596274644052037672    20.596275    20.596275   -9475.0184   -9641.9961   -9203.1892   -9579.8699   -3308.5192    297.69674 
    4690  20.596274644052037672    20.596275    20.596275    -9956.743   -10277.423   -9688.8389   -9903.9673   -3307.7335    285.52157 
    4700  20.596274644052037672    20.596275    20.596275   -10132.806    -10615.31   -9887.3454   -9895.7644   -3307.5611    282.85146 
    4710  20.596274644052037672    20.596275    20.596275    -9899.536   -10455.625    -9710.186   -9532.7966   -3308.1321    291.70335 
    4720  20.596274644052037672    20.596275    20.596275   -9371.7574   -9847.8734   -9285.3945   -8982.0044   -3309.2002    308.25833 
    4730  20.596274644052037672    20.596275    20.596275   -8804.3494    -9087.511   -8837.4273   -8488.1099   -3310.2526     324.5722 
    4740  20.596274644052037672    20.596275    20.596275   -8471.5984   -8566.6306   -8573.1109   -8275.0538   -3310.7826    332.78738 
    4750  20.596274644052037672    20.596275    20.596275   -8522.7053   -8517.8833   -8602.8183   -8447.4143   -3310.5732     329.5442 
    4760  20.596274644052037672    20.596275    20.596275   -8868.1571   -8841.3229   -8859.9393    -8903.209   -3309.8155    317.80327 
    4770  20.596274644052037672    20.596275    20.596275   -9260.5585   -9229.9729   -9153.3655   -9398.3372   -3308.9843     304.9236 
    4780  20.596274644052037672    20.596275    20.596275   -9460.0643   -9403.2452   -9307.9298    -9669.018   -3308.5525     298.2324 
    4790  20.596274644052037672    20.596275    20.596275   -9361.6731    -9265.493   -9265.7192   -9553.8072   -3308.7241    300.89321 
    4800  20.596274644052037672    20.596275    20.596275   -9039.7072     -8936.68    -9088.614   -9093.8277   -3309.3382    310.41063 
    4810  20.596274644052037672    20.596275    20.596275   -8717.5704   -8676.0722   -8930.6845   -8545.9545   -3309.9707    320.21398 
    4820  20.596274644052037672    20.596275    20.596275   -8639.4301   -8723.5741   -8963.0837   -8231.6324    -3310.175     323.3804 
    4830  20.596274644052037672    20.596275    20.596275   -8910.3078   -9143.5755   -9245.0411   -8342.3069   -3309.7533    316.84641 
    4840  20.596274644052037672    20.596275    20.596275   -9432.1687   -9783.3799   -9655.1466   -8857.9797   -3308.8923    303.50283 
    4850  20.596274644052037672    20.596275    20.596275   -9962.5503   -10351.209   -9964.0921   -9572.3495   -3308.0419    290.32475 
    4860  20.596274644052037672    20.596275    20.596275   -10261.773   -10578.089   -10017.347   -10189.884   -3307.6255    283.87126 
    4870  20.596274644052037672    20.596275    20.596275   -10209.108   -10355.005   -9817.6731   -10454.645   -3307.8044    286.64476 
    4880  20.596274644052037672    20.596275    20.596275   -9832.8758   -9770.7261   -9471.1973   -10256.704   -3308.4413     296.5173 
    4890  20.596274644052037672    20.596275    20.596275   -9298.0692   -9075.7286   -9144.3815   -9674.0975   -3309.2228    308.63239 
    4900  20.596274644052037672    20.596275    20.596275   -8831.3148   -8561.2877   -9005.0411   -8927.6156   -3309.8362    318.14224 
    4910  20.596274644052037672    20.596275    20.596275     -8572.23   -8388.4392   -9065.8198   -8262.4309   -3310.1209    322.55908 
    4920  20.596274644052037672    20.596275    20.596275   -8488.7043   -8501.2534   -9131.3434    -7833.516   -3310.1204    322.55376 
    4930  20.596274644052037672    20.596275    20.596275   -8463.6943   -8707.0032   -9011.5045   -7672.5753   -3309.9859    320.47082 
    4940  20.596274644052037672    20.596275    20.596275   -8429.0469   -8834.1963   -8719.0426   -7733.9017   -3309.8364    318.15444 
    4950  20.596274644052037672    20.596275    20.596275   -8416.8659   -8838.6977   -8430.5427   -7981.3575   -3309.7057    316.13035 
    4960  20.596274644052037672    20.596275    20.596275   -8533.6615   -8823.7788   -8355.2177   -8421.9881   -3309.5502    313.71949 
    4970  20.596274644052037672    20.596275    20.596275   -8888.7762   -8971.7999   -8650.9763   -9043.5524   -3309.2677    309.34054 
    4980  20.596274644052037672    20.596275    20.596275   -9470.1714   -9368.8117   -9310.3474   -9731.3552   -3308.7739    301.68619 
    4990  20.596274644052037672    20.596275    20.596275   -10112.459    -9900.919   -10131.245   -10305.212   -3308.1199    291.55117 
    5000  20.596274644052037672    20.596275    20.596275   -10601.206   -10334.341    -10853.75   -10615.528   -3307.5373    282.52297 
    5010  20.596274644052037672    20.596275    20.596275   -10792.428   -10481.888   -11296.047   -10599.349   -3307.3253    279.23915 
    5020  20.596274644052037672    20.596275    20.596275   -10647.626   -10299.128   -11353.034   -10290.714   -3307.6459    284.21037 
    5030  20.596274644052037672    20.596275    20.596275   -10246.705   -9902.1233   -11004.926   -9833.0659   -3308.3936    295.80056 
    5040  20.596274644052037672    20.596275    20.596275   -9781.0187   -9507.6744   -10391.217   -9444.1648   -3309.2372    308.87623 
    5050  20.596274644052037672    20.596275    20.596275   -9461.3321   -9313.4693   -9778.7039   -9291.8231   -3309.8044    317.66957 
    5060  20.596274644052037672    20.596275    20.596275   -9377.4759   -9380.7529   -9373.7246   -9377.9501   -3309.8924    319.03717 
    5070  20.596274644052037672    20.596275    20.596275   -9434.6944   -9573.0958   -9182.3167   -9548.6707   -3309.5769    314.14926 
    5080  20.596274644052037672    20.596275    20.596275    -9449.318   -9648.5366   -9082.4641   -9616.9534   -3309.1574    307.65115 
    5090  20.596274644052037672    20.596275    20.596275   -9276.4987   -9426.5287   -8948.8128   -9454.1545   -3308.9901      305.062 
    5100  20.596274644052037672    20.596275    20.596275   -8870.5112    -8894.718   -8699.2152   -9017.6004   -3309.2961    309.80631 
    5110  20.596274644052037672    20.596275    20.596275   -8291.9595   -8204.9704   -8306.7092   -8364.1989    -3310.035    321.26047 
    5120  20.596274644052037672    20.596275    20.596275   -7710.0455    -7584.766   -7854.4349   -7690.9357   -3310.9254    335.06382 
    5130  20.596274644052037672    20.596275    20.596275   -7353.5587   -7233.4515   -7548.7671   -7278.4576   -3311.5876     345.3283 
    5140  20.596274644052037672    20.596275    20.596275    -7401.871   -7264.6764   -7605.5647    -7335.372   -3311.6967    347.01962 
    5150  20.596274644052037672    20.596275    20.596275   -7903.8658   -7699.3258   -8114.5961   -7897.6756   -3311.0937    337.67412 
    5160  20.596274644052037672    20.596275    20.596275   -8781.0237   -8485.0928   -9004.7229   -8853.2553    -3309.861    318.56783 
    5170  20.596274644052037672    20.596275    20.596275   -9858.2967   -9487.3704   -10077.808   -10009.711   -3308.3329     294.8816 
    5180  20.596274644052037672    20.596275    20.596275   -10884.376   -10493.785   -11049.234    -11110.11   -3306.9797    273.90813 
    5190  20.596274644052037672    20.596275    20.596275   -11590.696   -11277.233   -11613.355     -11881.5   -3306.1962    261.76325 
    5200  20.596274644052037672    20.596275    20.596275   -11795.489   -11667.291   -11573.037   -12146.138   -3306.1401    260.89415 
    5210  20.596274644052037672    20.596275    20.596275   -11472.019   -11583.799   -10948.467    -11883.79   -3306.7287     270.0181 
    5220  20.596274644052037672    20.596275    20.596275   -10753.049   -11059.844   -9977.2602   -11222.045   -3307.7348     285.6165 
    5230  20.596274644052037672    20.596275    20.596275   -9871.9736   -10235.552   -9017.2742   -10363.094   -3308.8735    303.26913 
    5240  20.596274644052037672    20.596275    20.596275   -9083.0651   -9323.2697   -8405.4987   -9520.4269   -3309.8573    318.52085 
    5250  20.596274644052037672    20.596275    20.596275   -8553.0696   -8525.0254   -8270.3636   -8863.8197    -3310.465    327.94284 
    5260  20.596274644052037672    20.596275    20.596275   -8303.1809   -7981.0879   -8471.0108    -8457.444   -3310.6139    330.25416 
    5270  20.596274644052037672    20.596275    20.596275   -8290.5675    -7791.542   -8785.4506   -8294.7099   -3310.3602    326.32426 
    5280  20.596274644052037672    20.596275    20.596275   -8497.8755   -8013.0204        -9100   -8380.6062   -3309.8275    318.06734 
    5290  20.596274644052037672    20.596275    20.596275   -8903.3984   -8598.8254   -9383.0685   -8728.3012   -3309.1622    307.75634 
    5300  20.596274644052037672    20.596275    20.596275   -9402.4282    -9343.788    -9586.699   -9276.7976   -3308.5416    298.13766 
    5310  20.596274644052037672    20.596275    20.596275   -9799.5603    -9917.202   -9648.6229   -9832.8561   -3308.1553     292.1523 
    5320  20.596274644052037672    20.596275    20.596275   -9910.3135   -10029.974   -9548.0501   -10152.916   -3308.1402    291.91878 
    5330  20.596274644052037672    20.596275    20.596275   -9679.9876   -9618.4009    -9321.908   -10099.654   -3308.5196    297.80277 
    5340  20.596274644052037672    20.596275    20.596275   -9202.0768   -8864.3118   -9033.8271   -9708.0915     -3309.18    308.03987 
    5350  20.596274644052037672    20.596275    20.596275    -8668.189   -8089.5572   -8765.1788   -9149.8312   -3309.8968    319.15219 
    5360  20.596274644052037672    20.596275    20.596275   -8280.7098   -7603.7947   -8602.0867    -8636.248   -3310.4202    327.26792 
    5370  20.596274644052037672    20.596275    20.596275   -8146.8669   -7552.2826   -8563.1473   -8325.1708   -3310.5919    329.93158 
    5380  20.596274644052037672    20.596275    20.596275   -8263.8628   -7871.0622   -8615.6788   -8304.8474   -3310.4078    327.07895 
    5390  20.596274644052037672    20.596275    20.596275   -8556.8537   -8354.1421   -8752.4319    -8563.987   -3309.9763    320.39353 
    5400  20.596274644052037672    20.596275    20.596275   -8943.6241   -8818.1172   -9016.5035   -8996.2515   -3309.4515    312.26006 
    5410  20.596274644052037672    20.596275    20.596275   -9358.8379   -9181.6388    -9426.729   -9468.1458    -3308.993    305.15421 
    5420  20.596274644052037672    20.596275    20.596275   -9761.3602   -9445.8173   -9930.7715   -9907.4916   -3308.6984    300.58798 
    5430  20.596274644052037672    20.596275    20.596275   -10121.808   -9652.7339   -10427.815   -10284.876   -3308.5341    298.04096 
    5440  20.596274644052037672    20.596275    20.596275   -10387.098   -9823.1199    -10794.64   -10543.535   -3308.3921    295.84031 
    5450  20.596274644052037672    20.596275    20.596275    -10485.63   -9922.0059   -10921.626   -10613.258   -3308.2346    293.40179 
    5460  20.596274644052037672    20.596275    20.596275   -10411.085   -9912.0456   -10815.217   -10505.993   -3308.1438    291.99585 
    5470  20.596274644052037672    20.596275    20.596275   -10212.099   -9763.5509    -10579.28   -10293.466   -3308.2294    293.32542 
    5480  20.596274644052037672    20.596275    20.596275   -9895.3359   -9424.4261   -10270.452   -9991.1298   -3308.5308    297.99894 
    5490  20.596274644052037672    20.596275    20.596275   -9417.7546   -8858.0552   -9843.5466   -9551.6619   -3309.0041    305.33829 
    5500  20.596274644052037672    20.596275    20.596275   -8807.3529    -8162.949   -9271.1701   -8987.9398   -3309.5765    314.21288 
    5510  20.596274644052037672    20.596275    20.596275   -8202.2742   -7573.6102   -8631.6839   -8401.5287   -3310.1743    323.48279 
[...]
    8630  20.596274644052037672    20.596275    20.596275   -7958.6317   -7784.9904   -8002.4367   -8088.4681    -3310.985    336.71019 
    8640  20.596274644052037672    20.596275    20.596275   -8376.9426   -7940.2345    -8673.057   -8517.5364   -3310.2327    325.05279 
    8650  20.596274644052037672    20.596275    20.596275   -8988.6112   -8345.4595   -9547.6332   -9072.7409   -3309.2654    310.06122 
    8660  20.596274644052037672    20.596275    20.596275   -9672.0788   -8955.6149   -10382.026   -9678.5952   -3308.3913    296.51347 
    8670  20.596274644052037672    20.596275    20.596275   -10285.524   -9652.9676   -10926.411   -10277.194    -3307.821    287.67487 
    8680  20.596274644052037672    20.596275    20.596275   -10680.434   -10241.065    -11027.68   -10772.558   -3307.6191    284.54724 
    8690  20.596274644052037672    20.596275    20.596275   -10758.098   -10541.685   -10690.526   -11042.082   -3307.7237    286.16904 
    8700  20.596274644052037672    20.596275    20.596275   -10541.877   -10522.152   -10078.352   -11025.127   -3308.0031    290.50187 
    8710  20.596274644052037672    20.596275    20.596275   -10159.367   -10279.325   -9452.1038   -10746.672   -3308.3353    295.65479 
    8720  20.596274644052037672    20.596275    20.596275   -9745.7615   -9918.1655   -9039.2002   -10279.919   -3308.6716    300.87088 
    8730  20.596274644052037672    20.596275    20.596275   -9393.5744   -9528.5881   -8908.9996   -9743.1355   -3309.0206    306.28447 
    8740  20.596274644052037672    20.596275    20.596275   -9146.2816   -9221.1834   -8955.2458   -9262.4157   -3309.3673    311.66146 
    8750  20.596274644052037672    20.596275    20.596275   -9002.7638   -9093.6246   -9007.1186   -8907.5484   -3309.6249    315.65695 
    8760  20.596274644052037672    20.596275    20.596275   -8949.2085   -9167.5684   -8974.8838   -8705.1734    -3309.672    316.38925 
    8770  20.596274644052037672    20.596275    20.596275   -8995.2565   -9393.3554   -8900.8326   -8691.5815   -3309.4422    312.82952 
    8780  20.596274644052037672    20.596275    20.596275   -9167.8711   -9698.4481    -8898.421   -8906.7443   -3308.9999    305.97705 
    8790  20.596274644052037672    20.596275    20.596275   -9429.5102   -9965.2606   -9018.8722   -9304.3979   -3308.5486      298.985 
    8800  20.596274644052037672    20.596275    20.596275   -9626.8167   -10012.036   -9168.4732   -9699.9407   -3308.3514    295.93186 
    8810  20.596274644052037672    20.596275    20.596275   -9604.6672    -9701.658   -9212.5073   -9899.8363   -3308.5919    299.66268 
    8820  20.596274644052037672    20.596275    20.596275   -9320.4738   -9042.6145   -9092.6825   -9826.1243    -3309.252    309.89743 
    8830  20.596274644052037672    20.596275    20.596275    -8865.057   -8217.4931   -8851.4587    -9526.219   -3310.0872    322.84561 
    8840  20.596274644052037672    20.596275    20.596275   -8425.1086   -7533.0394   -8604.7453   -9137.5411    -3310.729    332.79582 
    8850  20.596274644052037672    20.596275    20.596275   -8199.3214   -7265.7188   -8493.0303   -8839.2152   -3310.8794    335.13032 
    8860  20.596274644052037672    20.596275    20.596275   -8283.9976   -7483.9357    -8599.141   -8768.9162   -3310.4867    329.04742 
    8870  20.596274644052037672    20.596275    20.596275   -8594.5796   -8006.5433   -8860.5747   -8916.6206   -3309.7684    317.91621 
    8880  20.596274644052037672    20.596275    20.596275   -8945.1751   -8563.3558   -9124.3625    -9147.807   -3309.0704    307.10035 
    8890  20.596274644052037672    20.596275    20.596275    -9170.506   -8941.0108   -9275.1807   -9295.3263   -3308.6781    301.02187 
    8900  20.596274644052037672    20.596275    20.596275   -9201.1294   -9045.7234   -9310.5451   -9247.1198     -3308.68     301.0531 
    8910  20.596274644052037672    20.596275    20.596275   -9117.2569   -8952.3027   -9343.1057   -9056.3625   -3308.9465    305.18445 
    8920  20.596274644052037672    20.596275    20.596275   -9085.1198   -8852.6082   -9487.6454   -8915.1059   -3309.2315    309.60415 
    8930  20.596274644052037672    20.596275    20.596275   -9220.0082   -8923.7599   -9753.9944   -8982.2703   -3309.3283    311.10643 
    8940  20.596274644052037672    20.596275    20.596275   -9501.3894   -9207.4809   -10037.984    -9258.703   -3309.1626    308.54102 
    8950  20.596274644052037672    20.596275    20.596275   -9817.9482   -9601.8533   -10216.353   -9635.6382   -3308.7931    302.81655 
    8960  20.596274644052037672    20.596275    20.596275   -10073.362   -9948.1872    -10261.66   -10010.239   -3308.3671    296.21616 
    8970  20.596274644052037672    20.596275    20.596275   -10220.307   -10113.978   -10235.352    -10311.59   -3308.0566    291.40539 
    8980  20.596274644052037672    20.596275    20.596275   -10257.184    -10065.94   -10218.934   -10486.678   -3307.9753    290.14767 
    8990  20.596274644052037672    20.596275    20.596275    -10206.11   -9869.6936   -10256.982   -10491.655   -3308.1254    292.47671 
    9000  20.596274644052037672    20.596275    20.596275    -10070.54   -9598.5665   -10315.669   -10297.384   -3308.4324    297.23765 
    9010  20.596274644052037672    20.596275    20.596275   -9827.1671   -9287.1797   -10287.947   -9906.3743   -3308.8167     303.1988 
    9020  20.596274644052037672    20.596275    20.596275   -9470.9765   -8956.6501   -10080.045   -9376.2345   -3309.2171    309.40763 
    9030  20.596274644052037672    20.596275    20.596275   -9055.6684   -8632.5611   -9703.2932   -8831.1509   -3309.5804    315.04342 
    9040  20.596274644052037672    20.596275    20.596275    -8693.608   -8361.4173   -9273.5792   -8445.8276   -3309.8582    319.35221 
    9050  20.596274644052037672    20.596275    20.596275   -8508.7335   -8214.6672   -8925.3806   -8386.1526   -3309.9972    321.50943 
    9060  20.596274644052037672    20.596275    20.596275   -8578.0238   -8275.5364    -8751.193    -8707.342   -3309.9227    320.35612 
    9070  20.596274644052037672    20.596275    20.596275   -8909.2601   -8610.0079   -8799.2692   -9318.5032   -3309.5553    314.66329 
    9080  20.596274644052037672    20.596275    20.596275   -9430.9359   -9195.7821   -9055.0338   -10041.992    -3308.899    304.49213 
    9090  20.596274644052037672    20.596275    20.596275   -10000.414   -9886.2739   -9430.9626   -10684.006   -3308.1336    292.63238 
    9100  20.596274644052037672    20.596275    20.596275   -10437.639     -10452.5    -9801.848   -11058.568   -3307.5821    284.08749 
    9110  20.596274644052037672    20.596275    20.596275   -10571.498   -10648.523   -10050.969   -11015.001   -3307.5408    283.45091 
    9120  20.596274644052037672    20.596275    20.596275   -10302.528   -10304.777   -10085.028    -10517.78   -3308.1151    292.35535 
    9130  20.596274644052037672    20.596275    20.596275   -9651.3302   -9444.0589    -9830.819   -9679.1128   -3309.1613    308.57431 
    9140  20.596274644052037672    20.596275    20.596275   -8808.8795   -8359.4485    -9314.566   -8752.6239   -3310.3318    326.71968 
    9150  20.596274644052037672    20.596275    20.596275    -8100.525   -7513.5672   -8721.1133   -8066.8945   -3311.1932    340.07471 
    9160  20.596274644052037672    20.596275    20.596275   -7821.0903   -7286.6737    -8300.686   -7875.9113   -3311.4008    343.29571 
    9170  20.596274644052037672    20.596275    20.596275   -8052.4751   -7754.5333    -8200.328   -8202.5639   -3310.8768     335.1762 
    9180  20.596274644052037672    20.596275    20.596275   -8618.5517   -8660.8547   -8375.5976   -8819.2027   -3309.8784    319.70553 
    9190  20.596274644052037672    20.596275    20.596275   -9212.1256   -9588.8691   -8646.2261   -9401.2814   -3308.8809    304.24756 
    9200  20.596274644052037672    20.596275    20.596275    -9564.856   -10159.427    -8826.522   -9708.6193   -3308.3213     295.5768 
    9210  20.596274644052037672    20.596275    20.596275   -9560.9079   -10165.139   -8846.9275   -9670.6572   -3308.3648    296.25182 
    9220  20.596274644052037672    20.596275    20.596275   -9284.9407   -9659.3415   -8811.9487   -9383.5317   -3308.8525    303.81251 
    9230  20.596274644052037672    20.596275    20.596275   -8985.1749   -8967.1643   -8925.2916   -9063.0689   -3309.4277    312.72832 
    9240  20.596274644052037672    20.596275    20.596275   -8923.0968   -8522.3773   -9317.0623   -8929.8508   -3309.7228    317.30427 
    9250  20.596274644052037672    20.596275    20.596275   -9186.7042   -8581.7532   -9917.5628   -9060.7965   -3309.5323    314.35558 
    9260  20.596274644052037672    20.596275    20.596275   -9631.7133   -9091.5119    -10454.11   -9349.5179   -3308.9151    304.79129 
    9270  20.596274644052037672    20.596275    20.596275   -10019.764   -9823.4007   -10615.477   -9620.4131   -3308.1793    293.39084 
    9280  20.596274644052037672    20.596275    20.596275   -10184.657   -10522.266   -10277.134   -9754.5714    -3307.725    286.35261 
    9290  20.596274644052037672    20.596275    20.596275   -10098.308   -10961.546    -9602.264   -9731.1137   -3307.8018    287.54579 
    9300  20.596274644052037672    20.596275    20.596275   -9818.8754   -10971.699      -8915.8    -9569.127   -3308.3606    296.20863 
    9310  20.596274644052037672    20.596275    20.596275   -9454.1522   -10524.904   -8519.0706   -9318.4818   -3309.1181    307.95241 
    9320  20.596274644052037672    20.596275    20.596275   -9124.1666   -9760.4488   -8550.2071   -9061.8439   -3309.7537    317.80811 
    9330  20.596274644052037672    20.596275    20.596275   -8913.1802   -8912.0006   -8951.4201   -8876.1201   -3310.0655    322.64476 
    9340  20.596274644052037672    20.596275    20.596275   -8847.6405   -8219.5468   -9526.8423   -8796.5323   -3310.0173    321.90009 
    9350  20.596274644052037672    20.596275    20.596275    -8910.683   -7875.1975   -10034.558   -8822.2934   -3309.7011    317.00338 
    9360  20.596274644052037672    20.596275    20.596275   -9071.1738   -7967.1168   -10289.676   -8956.7282   -3309.2738    310.38273 
    9370  20.596274644052037672    20.596275    20.596275   -9301.1344   -8425.3017   -10250.837   -9227.2644   -3308.8763    304.22297 
    9380  20.596274644052037672    20.596275    20.596275   -9590.3587   -9043.9891   -10064.352   -9662.7352    -3308.545    299.08775 
    9390  20.596274644052037672    20.596275    20.596275   -9907.8947   -9562.9039   -9953.2425   -10207.538   -3308.2283    294.18048 
    9400  20.596274644052037672    20.596275    20.596275   -10151.374   -9782.3541   -10007.485   -10664.282   -3307.9101    289.25194 
    9410  20.596274644052037672    20.596275    20.596275   -10188.144   -9655.7926    -10132.45   -10776.189   -3307.6936    285.89991 
    9420  20.596274644052037672    20.596275    20.596275   -9932.8982   -9279.8689   -10150.774   -10368.052   -3307.7716    287.11293 
    9430  20.596274644052037672    20.596275    20.596275   -9382.9356   -8797.6362   -9897.0038   -9454.1668   -3308.3169    295.57095 
    9440  20.596274644052037672    20.596275    20.596275   -8637.0242   -8320.9407   -9301.4966   -8288.6352   -3309.3433    311.48334 
    9450  20.596274644052037672    20.596275    20.596275   -7887.9271   -7913.7488   -8463.7595   -7286.2729   -3310.6056    331.05193 
    9460  20.596274644052037672    20.596275    20.596275   -7371.1476   -7622.8424   -7652.6457   -6837.9547   -3311.6591    347.38445 
    9470  20.596274644052037672    20.596275    20.596275    -7266.451   -7509.1738   -7176.9132   -7113.2659   -3312.0756    353.84302 
    9480  20.596274644052037672    20.596275    20.596275   -7630.6262   -7670.1732   -7236.8471   -7984.8583     -3311.66    347.40426 
    9490  20.596274644052037672    20.596275    20.596275   -8392.0712   -8187.2001   -7860.6413    -9128.372   -3310.5356    329.97939 
    9500  20.596274644052037672    20.596275    20.596275   -9359.0276   -9008.9822    -8883.714   -10184.387   -3309.0773    307.37785 
    9510  20.596274644052037672    20.596275    20.596275   -10263.413   -9922.9822   -10005.595    -10861.66   -3307.7548    286.87975 
    9520  20.596274644052037672    20.596275    20.596275   -10884.039   -10698.098   -10924.061   -11029.959   -3306.9464    274.35047 
    9530  20.596274644052037672    20.596275    20.596275   -11131.538   -11208.273   -11421.243   -10765.098   -3306.7929    271.97256 
    9540  20.596274644052037672    20.596275    20.596275    -11033.58   -11416.398   -11406.137   -10278.207   -3307.1843    278.04097 
    9550  20.596274644052037672    20.596275    20.596275   -10687.821   -11328.649   -10942.564   -9792.2506   -3307.8658    288.60606 
    9560  20.596274644052037672    20.596275    20.596275   -10207.291   -10974.107   -10218.819   -9428.9456   -3308.5683    299.49908 
    9570  20.596274644052037672    20.596275    20.596275   -9683.3478   -10404.962   -9458.4991   -9186.5826   -3309.1115    307.92288 
    9580  20.596274644052037672    20.596275    20.596275   -9180.0145   -9714.3727   -8828.8914   -8996.7795   -3309.4593     313.3185 
    9590  20.596274644052037672    20.596275    20.596275   -8730.7672   -9008.0141   -8406.4988   -8777.7888   -3309.6976    317.01748 
    9600  20.596274644052037672    20.596275    20.596275   -8353.4201   -8371.2242   -8198.3271   -8490.7091    -3309.931     320.6391 
    9610  20.596274644052037672    20.596275    20.596275   -8082.8354   -7884.4535    -8177.614   -8186.4389   -3310.1771    324.45671 
    9620  20.596274644052037672    20.596275    20.596275   -7981.7424   -7637.1354   -8327.8384   -7980.2535    -3310.349    327.12443 
    9630  20.596274644052037672    20.596275    20.596275   -8113.1007   -7706.3252   -8657.3606   -7975.6162   -3310.3333    326.88347 
    9640  20.596274644052037672    20.596275    20.596275   -8476.1227   -8086.6553   -9153.6617   -8188.0511   -3310.0849    323.03564 
    9650  20.596274644052037672    20.596275    20.596275    -8973.084   -8662.1529   -9734.7986   -8522.3005   -3309.6652    316.53302 
    9660  20.596274644052037672    20.596275    20.596275    -9435.305   -9251.7011   -10239.297   -8814.9163   -3309.2175    309.59721 
    9670  20.596274644052037672    20.596275    20.596275   -9716.0583   -9683.7853   -10509.997   -8954.3924    -3308.893    304.56969 
    9680  20.596274644052037672    20.596275    20.596275   -9786.2425   -9866.6102   -10493.698   -8998.4197   -3308.7604    302.51509 
    9690  20.596274644052037672    20.596275    20.596275   -9745.7126   -9844.0883   -10264.037   -9129.0126   -3308.7596    302.50473 
    9700  20.596274644052037672    20.596275    20.596275    -9724.257   -9761.8643   -9972.2438   -9438.6628   -3308.7347    302.11993 
    9710  20.596274644052037672    20.596275    20.596275    -9778.823   -9751.7803   -9771.4695   -9813.2192   -3308.5441    299.16706 
    9720  20.596274644052037672    20.596275    20.596275   -9888.4153   -9835.7399   -9755.6507   -10073.855   -3308.1989    293.82064 
    9730  20.596274644052037672    20.596275    20.596275   -9974.3761   -9901.0173   -9895.2164   -10126.894   -3307.8984    289.16733 
    9740  20.596274644052037672    20.596275    20.596275   -9921.9527    -9783.826   -10031.459   -9950.5734   -3307.8971    289.15105 
    9750  20.596274644052037672    20.596275    20.596275   -9669.9591   -9416.4466   -9996.3566   -9597.0741   -3308.3085    295.52983 
    9760  20.596274644052037672    20.596275    20.596275   -9294.6405   -8903.2588   -9750.9934   -9229.6692   -3308.9987    306.23148 
    9770  20.596274644052037672    20.596275    20.596275   -8964.6869   -8465.2198   -9400.5846   -9028.2561   -3309.6552    316.40878 
    9780  20.596274644052037672    20.596275    20.596275   -8828.1103   -8313.7794   -9126.0689   -9044.4826   -3309.9686     321.2689 
    9790  20.596274644052037672    20.596275    20.596275   -8933.2029   -8523.2394   -9078.5317   -9197.8376   -3309.7917    318.53071 
    9800  20.596274644052037672    20.596275    20.596275    -9223.443   -8984.9373   -9283.2027    -9402.189   -3309.2126    309.55838 
    9810  20.596274644052037672    20.596275    20.596275   -9553.6799   -9456.2704   -9603.6728   -9601.0966   -3308.5467    299.24112 
    9820  20.596274644052037672    20.596275    20.596275   -9727.8669    -9682.578   -9812.9816   -9688.0412   -3308.2107    294.03736 
    9830  20.596274644052037672    20.596275    20.596275   -9603.9899   -9542.7476   -9739.5063   -9529.7159   -3308.4651    297.98415 
    9840  20.596274644052037672    20.596275    20.596275   -9198.2016    -9106.731   -9375.5805   -9112.2932   -3309.2182    309.65981 
    9850  20.596274644052037672    20.596275    20.596275   -8684.1771   -8562.1896   -8879.5893   -8610.7524      -3310.1    323.33007 
    9860  20.596274644052037672    20.596275    20.596275   -8318.6663   -8123.6064   -8508.8417   -8323.5509   -3310.6992    332.61924 
    9870  20.596274644052037672    20.596275    20.596275   -8314.6256   -7978.6795   -8490.7328   -8474.4646   -3310.7306    333.10919 
    9880  20.596274644052037672    20.596275    20.596275   -8694.4735   -8214.1868    -8860.917   -9008.3168   -3310.1327    323.84449 
    9890  20.596274644052037672    20.596275    20.596275   -9246.6267   -8720.0225   -9417.3786   -9602.4791   -3309.1569    308.72383 
    9900  20.596274644052037672    20.596275    20.596275   -9675.8353   -9247.1623   -9858.5529   -9921.7907    -3308.302    295.47784 
    9910  20.596274644052037672    20.596275    20.596275   -9821.5181   -9603.9347     -9991.71   -9868.9096   -3307.9993    290.78761 
    9920  20.596274644052037672    20.596275    20.596275   -9693.7079   -9706.0977   -9808.0763   -9566.9497   -3308.3266    295.86216 
    9930  20.596274644052037672    20.596275    20.596275   -9420.5137   -9554.0742   -9463.5847   -9243.8821   -3309.0075    306.41822 
    9940  20.596274644052037672    20.596275    20.596275   -9183.0517   -9238.7214   -9197.2749   -9113.1587   -3309.6285    316.04591 
    9950  20.596274644052037672    20.596275    20.596275   -9140.0811   -8955.3936   -9206.1777   -9258.6719   -3309.8721    319.82486 
    9960  20.596274644052037672    20.596275    20.596275   -9303.7827   -8864.7405   -9496.5285   -9550.0791   -3309.6467    316.33433 
    9970  20.596274644052037672    20.596275    20.596275   -9513.4353   -8939.0819   -9890.0765   -9711.1475   -3309.1002    307.86719 
    9980  20.596274644052037672    20.596275    20.596275   -9611.1741   -9077.0184   -10205.214   -9551.2895   -3308.5313    299.05276 
    9990  20.596274644052037672    20.596275    20.596275   -9564.1543   -9235.1126   -10336.686    -9120.664   -3308.2398    294.53811 
    9999  20.596274644052037672    20.596275    20.596275   -9417.8417   -9346.4301   -10238.408    -8668.687   -3308.3466    296.19694 
Loop time of 3.05495 on 4 procs for 9999 steps with 500 atoms

Performance: 282.791 ns/day, 0.085 hours/ns, 3273.048 timesteps/s
98.0% CPU use with 4 MPI tasks x no OpenMP threads

MPI task timing breakdown:
Section |  min time  |  avg time  |  max time  |%varavg| %total
---------------------------------------------------------------
Pair    | 1.7994     | 2.1792     | 2.6474     |  20.5 | 71.33
Neigh   | 0          | 0          | 0          |   0.0 |  0.00
Comm    | 0.27762    | 0.72757    | 1.0899     |  34.1 | 23.82
Output  | 0.058193   | 0.059646   | 0.063946   |   1.0 |  1.95
Modify  | 0.038249   | 0.053083   | 0.067712   |   6.2 |  1.74
Other   |            | 0.03545    |            |       |  1.16

Nlocal:    125 ave 180 max 80 min
Histogram: 1 0 0 0 2 0 0 0 0 1
Nghost:    1099 ave 1144 max 1044 min
Histogram: 1 0 0 0 0 0 2 0 0 1
Neighs:    8375 ave 12060 max 5360 min
Histogram: 1 0 0 0 2 0 0 0 0 1

Total # of neighbors = 33500
Ave neighs/atom = 67
Neighbor list builds = 0
Dangerous builds = 0

#-------------------------------------------------
Total wall time: 0:00:03
