ITEM: TIMESTEP
0
ITEM: NUMBER OF ATOMS
500
ITEM: BOX BOUNDS pp pp pp
-2.9813732202599519e-01 2.0298137322026044e+01
-2.9813732202599519e-01 2.0298137322026044e+01
-2.9813732202599519e-01 2.0298137322026044e+01
ITEM: ATOMS id type x y z 
1 1 -0.298137 -0.298137 -0.298137 
2 1 1.76149 1.76149 -0.298137 
3 1 1.76149 -0.298137 1.76149 
4 1 -0.298137 1.76149 1.76149 
21 1 -0.298137 3.82112 -0.298137 
23 1 1.76149 3.82112 1.76149 
51 1 -0.298137 -0.298137 3.82112 
52 1 1.76149 1.76149 3.82112 
71 1 -0.298137 3.82112 3.82112 
5 1 3.82112 -0.298137 -0.298137 
8 1 3.82112 1.76149 1.76149 
25 1 3.82112 3.82112 -0.298137 
55 1 3.82112 -0.298137 3.82112 
75 1 3.82112 3.82112 3.82112 
6 1 5.88075 1.76149 -0.298137 
7 1 5.88075 -0.298137 1.76149 
27 1 5.88075 3.82112 1.76149 
56 1 5.88075 1.76149 3.82112 
9 1 7.94037 -0.298137 -0.298137 
12 1 7.94037 1.76149 1.76149 
29 1 7.94037 3.82112 -0.298137 
59 1 7.94037 -0.298137 3.82112 
79 1 7.94037 3.82112 3.82112 
10 1 10 1.76149 -0.298137 
11 1 10 -0.298137 1.76149 
31 1 10 3.82112 1.76149 
60 1 10 1.76149 3.82112 
13 1 12.0596 -0.298137 -0.298137 
14 1 14.1193 1.76149 -0.298137 
15 1 14.1193 -0.298137 1.76149 
16 1 12.0596 1.76149 1.76149 
33 1 12.0596 3.82112 -0.298137 
35 1 14.1193 3.82112 1.76149 
63 1 12.0596 -0.298137 3.82112 
64 1 14.1193 1.76149 3.82112 
83 1 12.0596 3.82112 3.82112 
17 1 16.1789 -0.298137 -0.298137 
18 1 18.2385 1.76149 -0.298137 
19 1 18.2385 -0.298137 1.76149 
20 1 16.1789 1.76149 1.76149 
37 1 16.1789 3.82112 -0.298137 
39 1 18.2385 3.82112 1.76149 
67 1 16.1789 -0.298137 3.82112 
68 1 18.2385 1.76149 3.82112 
87 1 16.1789 3.82112 3.82112 
22 1 1.76149 5.88075 -0.298137 
24 1 -0.298137 5.88075 1.76149 
41 1 -0.298137 7.94037 -0.298137 
42 1 1.76149 7.94037 1.76149 
72 1 1.76149 5.88075 3.82112 
91 1 -0.298137 7.94037 3.82112 
251 1 1.76149 10 -0.298137 
252 1 -0.298137 10 1.76149 
301 1 1.76149 10 3.82112 
28 1 3.82112 5.88075 1.76149 
43 1 3.82112 7.94037 -0.298137 
93 1 3.82112 7.94037 3.82112 
26 1 5.88075 5.88075 -0.298137 
44 1 5.88075 7.94037 1.76149 
76 1 5.88075 5.88075 3.82112 
254 1 3.82112 10 1.76149 
253 1 5.88075 10 -0.298137 
303 1 5.88075 10 3.82112 
32 1 7.94037 5.88075 1.76149 
45 1 7.94037 7.94037 -0.298137 
95 1 7.94037 7.94037 3.82112 
30 1 10 5.88075 -0.298137 
46 1 10 7.94037 1.76149 
80 1 10 5.88075 3.82112 
256 1 7.94037 10 1.76149 
255 1 10 10 -0.298137 
305 1 10 10 3.82112 
34 1 14.1193 5.88075 -0.298137 
36 1 12.0596 5.88075 1.76149 
47 1 12.0596 7.94037 -0.298137 
48 1 14.1193 7.94037 1.76149 
84 1 14.1193 5.88075 3.82112 
97 1 12.0596 7.94037 3.82112 
257 1 14.1193 10 -0.298137 
258 1 12.0596 10 1.76149 
307 1 14.1193 10 3.82112 
38 1 18.2385 5.88075 -0.298137 
40 1 16.1789 5.88075 1.76149 
49 1 16.1789 7.94037 -0.298137 
50 1 18.2385 7.94037 1.76149 
88 1 18.2385 5.88075 3.82112 
99 1 16.1789 7.94037 3.82112 
259 1 18.2385 10 -0.298137 
260 1 16.1789 10 1.76149 
309 1 18.2385 10 3.82112 
53 1 1.76149 -0.298137 5.88075 
54 1 -0.298137 1.76149 5.88075 
73 1 1.76149 3.82112 5.88075 
101 1 -0.298137 -0.298137 7.94037 
102 1 1.76149 1.76149 7.94037 
111 1 -0.298137 3.82112 7.94037 
126 1 1.76149 -0.298137 10 
127 1 -0.298137 1.76149 10 
136 1 1.76149 3.82112 10 
58 1 3.82112 1.76149 5.88075 
103 1 3.82112 -0.298137 7.94037 
113 1 3.82112 3.82112 7.94037 
57 1 5.88075 -0.298137 5.88075 
77 1 5.88075 3.82112 5.88075 
104 1 5.88075 1.76149 7.94037 
129 1 3.82112 1.76149 10 
128 1 5.88075 -0.298137 10 
138 1 5.88075 3.82112 10 
62 1 7.94037 1.76149 5.88075 
105 1 7.94037 -0.298137 7.94037 
115 1 7.94037 3.82112 7.94037 
61 1 10 -0.298137 5.88075 
81 1 10 3.82112 5.88075 
106 1 10 1.76149 7.94037 
131 1 7.94037 1.76149 10 
130 1 10 -0.298137 10 
140 1 10 3.82112 10 
65 1 14.1193 -0.298137 5.88075 
66 1 12.0596 1.76149 5.88075 
85 1 14.1193 3.82112 5.88075 
107 1 12.0596 -0.298137 7.94037 
108 1 14.1193 1.76149 7.94037 
117 1 12.0596 3.82112 7.94037 
132 1 14.1193 -0.298137 10 
133 1 12.0596 1.76149 10 
142 1 14.1193 3.82112 10 
69 1 18.2385 -0.298137 5.88075 
70 1 16.1789 1.76149 5.88075 
89 1 18.2385 3.82112 5.88075 
109 1 16.1789 -0.298137 7.94037 
110 1 18.2385 1.76149 7.94037 
119 1 16.1789 3.82112 7.94037 
134 1 18.2385 -0.298137 10 
135 1 16.1789 1.76149 10 
144 1 18.2385 3.82112 10 
74 1 -0.298137 5.88075 5.88075 
92 1 1.76149 7.94037 5.88075 
112 1 1.76149 5.88075 7.94037 
121 1 -0.298137 7.94037 7.94037 
302 1 -0.298137 10 5.88075 
351 1 1.76149 10 7.94037 
137 1 -0.298137 5.88075 10 
146 1 1.76149 7.94037 10 
376 1 -0.298137 10 10 
78 1 3.82112 5.88075 5.88075 
122 1 3.82112 7.94037 7.94037 
94 1 5.88075 7.94037 5.88075 
114 1 5.88075 5.88075 7.94037 
304 1 3.82112 10 5.88075 
352 1 5.88075 10 7.94037 
139 1 3.82112 5.88075 10 
147 1 5.88075 7.94037 10 
377 1 3.82112 10 10 
82 1 7.94037 5.88075 5.88075 
123 1 7.94037 7.94037 7.94037 
96 1 10 7.94037 5.88075 
116 1 10 5.88075 7.94037 
306 1 7.94037 10 5.88075 
353 1 10 10 7.94037 
378 1 7.94037 10 10 
141 1 7.94037 5.88075 10 
148 1 10 7.94037 10 
86 1 12.0596 5.88075 5.88075 
98 1 14.1193 7.94037 5.88075 
118 1 14.1193 5.88075 7.94037 
124 1 12.0596 7.94037 7.94037 
308 1 12.0596 10 5.88075 
354 1 14.1193 10 7.94037 
379 1 12.0596 10 10 
143 1 12.0596 5.88075 10 
149 1 14.1193 7.94037 10 
90 1 16.1789 5.88075 5.88075 
100 1 18.2385 7.94037 5.88075 
120 1 18.2385 5.88075 7.94037 
125 1 16.1789 7.94037 7.94037 
355 1 18.2385 10 7.94037 
310 1 16.1789 10 5.88075 
380 1 16.1789 10 10 
145 1 16.1789 5.88075 10 
150 1 18.2385 7.94037 10 
151 1 -0.298137 -0.298137 12.0596 
152 1 1.76149 1.76149 12.0596 
153 1 1.76149 -0.298137 14.1193 
154 1 -0.298137 1.76149 14.1193 
171 1 -0.298137 3.82112 12.0596 
173 1 1.76149 3.82112 14.1193 
155 1 3.82112 -0.298137 12.0596 
158 1 3.82112 1.76149 14.1193 
175 1 3.82112 3.82112 12.0596 
156 1 5.88075 1.76149 12.0596 
157 1 5.88075 -0.298137 14.1193 
177 1 5.88075 3.82112 14.1193 
159 1 7.94037 -0.298137 12.0596 
162 1 7.94037 1.76149 14.1193 
179 1 7.94037 3.82112 12.0596 
160 1 10 1.76149 12.0596 
161 1 10 -0.298137 14.1193 
181 1 10 3.82112 14.1193 
163 1 12.0596 -0.298137 12.0596 
164 1 14.1193 1.76149 12.0596 
165 1 14.1193 -0.298137 14.1193 
166 1 12.0596 1.76149 14.1193 
183 1 12.0596 3.82112 12.0596 
185 1 14.1193 3.82112 14.1193 
167 1 16.1789 -0.298137 12.0596 
168 1 18.2385 1.76149 12.0596 
169 1 18.2385 -0.298137 14.1193 
170 1 16.1789 1.76149 14.1193 
187 1 16.1789 3.82112 12.0596 
189 1 18.2385 3.82112 14.1193 
172 1 1.76149 5.88075 12.0596 
174 1 -0.298137 5.88075 14.1193 
191 1 -0.298137 7.94037 12.0596 
192 1 1.76149 7.94037 14.1193 
402 1 -0.298137 10 14.1193 
401 1 1.76149 10 12.0596 
403 1 5.88075 10 12.0596 
404 1 3.82112 10 14.1193 
178 1 3.82112 5.88075 14.1193 
193 1 3.82112 7.94037 12.0596 
176 1 5.88075 5.88075 12.0596 
194 1 5.88075 7.94037 14.1193 
405 1 10 10 12.0596 
406 1 7.94037 10 14.1193 
182 1 7.94037 5.88075 14.1193 
195 1 7.94037 7.94037 12.0596 
180 1 10 5.88075 12.0596 
196 1 10 7.94037 14.1193 
408 1 12.0596 10 14.1193 
407 1 14.1193 10 12.0596 
184 1 14.1193 5.88075 12.0596 
186 1 12.0596 5.88075 14.1193 
197 1 12.0596 7.94037 12.0596 
198 1 14.1193 7.94037 14.1193 
410 1 16.1789 10 14.1193 
409 1 18.2385 10 12.0596 
188 1 18.2385 5.88075 12.0596 
190 1 16.1789 5.88075 14.1193 
199 1 16.1789 7.94037 12.0596 
200 1 18.2385 7.94037 14.1193 
201 1 -0.298137 -0.298137 16.1789 
202 1 1.76149 1.76149 16.1789 
203 1 1.76149 -0.298137 18.2385 
204 1 -0.298137 1.76149 18.2385 
221 1 -0.298137 3.82112 16.1789 
223 1 1.76149 3.82112 18.2385 
205 1 3.82112 -0.298137 16.1789 
208 1 3.82112 1.76149 18.2385 
225 1 3.82112 3.82112 16.1789 
206 1 5.88075 1.76149 16.1789 
207 1 5.88075 -0.298137 18.2385 
227 1 5.88075 3.82112 18.2385 
209 1 7.94037 -0.298137 16.1789 
212 1 7.94037 1.76149 18.2385 
229 1 7.94037 3.82112 16.1789 
210 1 10 1.76149 16.1789 
211 1 10 -0.298137 18.2385 
231 1 10 3.82112 18.2385 
213 1 12.0596 -0.298137 16.1789 
214 1 14.1193 1.76149 16.1789 
215 1 14.1193 -0.298137 18.2385 
216 1 12.0596 1.76149 18.2385 
233 1 12.0596 3.82112 16.1789 
235 1 14.1193 3.82112 18.2385 
217 1 16.1789 -0.298137 16.1789 
218 1 18.2385 1.76149 16.1789 
219 1 18.2385 -0.298137 18.2385 
220 1 16.1789 1.76149 18.2385 
237 1 16.1789 3.82112 16.1789 
239 1 18.2385 3.82112 18.2385 
452 1 -0.298137 10 18.2385 
451 1 1.76149 10 16.1789 
222 1 1.76149 5.88075 16.1789 
224 1 -0.298137 5.88075 18.2385 
241 1 -0.298137 7.94037 16.1789 
242 1 1.76149 7.94037 18.2385 
453 1 5.88075 10 16.1789 
454 1 3.82112 10 18.2385 
228 1 3.82112 5.88075 18.2385 
243 1 3.82112 7.94037 16.1789 
226 1 5.88075 5.88075 16.1789 
244 1 5.88075 7.94037 18.2385 
455 1 10 10 16.1789 
456 1 7.94037 10 18.2385 
232 1 7.94037 5.88075 18.2385 
245 1 7.94037 7.94037 16.1789 
230 1 10 5.88075 16.1789 
246 1 10 7.94037 18.2385 
458 1 12.0596 10 18.2385 
457 1 14.1193 10 16.1789 
248 1 14.1193 7.94037 18.2385 
234 1 14.1193 5.88075 16.1789 
236 1 12.0596 5.88075 18.2385 
247 1 12.0596 7.94037 16.1789 
460 1 16.1789 10 18.2385 
459 1 18.2385 10 16.1789 
250 1 18.2385 7.94037 18.2385 
249 1 16.1789 7.94037 16.1789 
240 1 16.1789 5.88075 18.2385 
238 1 18.2385 5.88075 16.1789 
261 1 -0.298137 12.0596 -0.298137 
262 1 1.76149 14.1193 -0.298137 
263 1 1.76149 12.0596 1.76149 
264 1 -0.298137 14.1193 1.76149 
311 1 -0.298137 12.0596 3.82112 
312 1 1.76149 14.1193 3.82112 
265 1 3.82112 12.0596 -0.298137 
268 1 3.82112 14.1193 1.76149 
315 1 3.82112 12.0596 3.82112 
266 1 5.88075 14.1193 -0.298137 
267 1 5.88075 12.0596 1.76149 
316 1 5.88075 14.1193 3.82112 
269 1 7.94037 12.0596 -0.298137 
272 1 7.94037 14.1193 1.76149 
319 1 7.94037 12.0596 3.82112 
270 1 10 14.1193 -0.298137 
271 1 10 12.0596 1.76149 
320 1 10 14.1193 3.82112 
273 1 12.0596 12.0596 -0.298137 
274 1 14.1193 14.1193 -0.298137 
275 1 14.1193 12.0596 1.76149 
276 1 12.0596 14.1193 1.76149 
323 1 12.0596 12.0596 3.82112 
324 1 14.1193 14.1193 3.82112 
277 1 16.1789 12.0596 -0.298137 
278 1 18.2385 14.1193 -0.298137 
279 1 18.2385 12.0596 1.76149 
280 1 16.1789 14.1193 1.76149 
327 1 16.1789 12.0596 3.82112 
328 1 18.2385 14.1193 3.82112 
281 1 -0.298137 16.1789 -0.298137 
282 1 1.76149 18.2385 -0.298137 
283 1 1.76149 16.1789 1.76149 
284 1 -0.298137 18.2385 1.76149 
331 1 -0.298137 16.1789 3.82112 
332 1 1.76149 18.2385 3.82112 
285 1 3.82112 16.1789 -0.298137 
288 1 3.82112 18.2385 1.76149 
335 1 3.82112 16.1789 3.82112 
286 1 5.88075 18.2385 -0.298137 
287 1 5.88075 16.1789 1.76149 
336 1 5.88075 18.2385 3.82112 
289 1 7.94037 16.1789 -0.298137 
292 1 7.94037 18.2385 1.76149 
339 1 7.94037 16.1789 3.82112 
290 1 10 18.2385 -0.298137 
291 1 10 16.1789 1.76149 
340 1 10 18.2385 3.82112 
293 1 12.0596 16.1789 -0.298137 
294 1 14.1193 18.2385 -0.298137 
295 1 14.1193 16.1789 1.76149 
296 1 12.0596 18.2385 1.76149 
343 1 12.0596 16.1789 3.82112 
344 1 14.1193 18.2385 3.82112 
297 1 16.1789 16.1789 -0.298137 
298 1 18.2385 18.2385 -0.298137 
299 1 18.2385 16.1789 1.76149 
300 1 16.1789 18.2385 1.76149 
347 1 16.1789 16.1789 3.82112 
348 1 18.2385 18.2385 3.82112 
313 1 1.76149 12.0596 5.88075 
314 1 -0.298137 14.1193 5.88075 
356 1 -0.298137 12.0596 7.94037 
357 1 1.76149 14.1193 7.94037 
381 1 1.76149 12.0596 10 
382 1 -0.298137 14.1193 10 
318 1 3.82112 14.1193 5.88075 
358 1 3.82112 12.0596 7.94037 
317 1 5.88075 12.0596 5.88075 
359 1 5.88075 14.1193 7.94037 
384 1 3.82112 14.1193 10 
383 1 5.88075 12.0596 10 
322 1 7.94037 14.1193 5.88075 
360 1 7.94037 12.0596 7.94037 
321 1 10 12.0596 5.88075 
361 1 10 14.1193 7.94037 
386 1 7.94037 14.1193 10 
385 1 10 12.0596 10 
325 1 14.1193 12.0596 5.88075 
326 1 12.0596 14.1193 5.88075 
362 1 12.0596 12.0596 7.94037 
363 1 14.1193 14.1193 7.94037 
387 1 14.1193 12.0596 10 
388 1 12.0596 14.1193 10 
365 1 18.2385 14.1193 7.94037 
364 1 16.1789 12.0596 7.94037 
330 1 16.1789 14.1193 5.88075 
329 1 18.2385 12.0596 5.88075 
389 1 18.2385 12.0596 10 
390 1 16.1789 14.1193 10 
367 1 1.76149 18.2385 7.94037 
366 1 -0.298137 16.1789 7.94037 
334 1 -0.298137 18.2385 5.88075 
333 1 1.76149 16.1789 5.88075 
391 1 1.76149 16.1789 10 
392 1 -0.298137 18.2385 10 
369 1 5.88075 18.2385 7.94037 
337 1 5.88075 16.1789 5.88075 
368 1 3.82112 16.1789 7.94037 
338 1 3.82112 18.2385 5.88075 
394 1 3.82112 18.2385 10 
393 1 5.88075 16.1789 10 
371 1 10 18.2385 7.94037 
341 1 10 16.1789 5.88075 
370 1 7.94037 16.1789 7.94037 
342 1 7.94037 18.2385 5.88075 
396 1 7.94037 18.2385 10 
395 1 10 16.1789 10 
373 1 14.1193 18.2385 7.94037 
372 1 12.0596 16.1789 7.94037 
346 1 12.0596 18.2385 5.88075 
345 1 14.1193 16.1789 5.88075 
397 1 14.1193 16.1789 10 
398 1 12.0596 18.2385 10 
375 1 18.2385 18.2385 7.94037 
374 1 16.1789 16.1789 7.94037 
350 1 16.1789 18.2385 5.88075 
349 1 18.2385 16.1789 5.88075 
399 1 18.2385 16.1789 10 
400 1 16.1789 18.2385 10 
411 1 -0.298137 12.0596 12.0596 
412 1 1.76149 14.1193 12.0596 
413 1 1.76149 12.0596 14.1193 
414 1 -0.298137 14.1193 14.1193 
415 1 3.82112 12.0596 12.0596 
418 1 3.82112 14.1193 14.1193 
416 1 5.88075 14.1193 12.0596 
417 1 5.88075 12.0596 14.1193 
419 1 7.94037 12.0596 12.0596 
422 1 7.94037 14.1193 14.1193 
420 1 10 14.1193 12.0596 
421 1 10 12.0596 14.1193 
423 1 12.0596 12.0596 12.0596 
424 1 14.1193 14.1193 12.0596 
425 1 14.1193 12.0596 14.1193 
426 1 12.0596 14.1193 14.1193 
427 1 16.1789 12.0596 12.0596 
428 1 18.2385 14.1193 12.0596 
429 1 18.2385 12.0596 14.1193 
430 1 16.1789 14.1193 14.1193 
431 1 -0.298137 16.1789 12.0596 
432 1 1.76149 18.2385 12.0596 
433 1 1.76149 16.1789 14.1193 
434 1 -0.298137 18.2385 14.1193 
435 1 3.82112 16.1789 12.0596 
438 1 3.82112 18.2385 14.1193 
436 1 5.88075 18.2385 12.0596 
437 1 5.88075 16.1789 14.1193 
439 1 7.94037 16.1789 12.0596 
442 1 7.94037 18.2385 14.1193 
440 1 10 18.2385 12.0596 
441 1 10 16.1789 14.1193 
443 1 12.0596 16.1789 12.0596 
444 1 14.1193 18.2385 12.0596 
445 1 14.1193 16.1789 14.1193 
446 1 12.0596 18.2385 14.1193 
447 1 16.1789 16.1789 12.0596 
448 1 18.2385 18.2385 12.0596 
449 1 18.2385 16.1789 14.1193 
450 1 16.1789 18.2385 14.1193 
464 1 -0.298137 14.1193 18.2385 
463 1 1.76149 12.0596 18.2385 
461 1 -0.298137 12.0596 16.1789 
462 1 1.76149 14.1193 16.1789 
467 1 5.88075 12.0596 18.2385 
466 1 5.88075 14.1193 16.1789 
468 1 3.82112 14.1193 18.2385 
465 1 3.82112 12.0596 16.1789 
471 1 10 12.0596 18.2385 
470 1 10 14.1193 16.1789 
472 1 7.94037 14.1193 18.2385 
469 1 7.94037 12.0596 16.1789 
476 1 12.0596 14.1193 18.2385 
475 1 14.1193 12.0596 18.2385 
474 1 14.1193 14.1193 16.1789 
473 1 12.0596 12.0596 16.1789 
477 1 16.1789 12.0596 16.1789 
478 1 18.2385 14.1193 16.1789 
479 1 18.2385 12.0596 18.2385 
480 1 16.1789 14.1193 18.2385 
481 1 -0.298137 16.1789 16.1789 
482 1 1.76149 18.2385 16.1789 
484 1 -0.298137 18.2385 18.2385 
483 1 1.76149 16.1789 18.2385 
487 1 5.88075 16.1789 18.2385 
486 1 5.88075 18.2385 16.1789 
488 1 3.82112 18.2385 18.2385 
485 1 3.82112 16.1789 16.1789 
491 1 10 16.1789 18.2385 
490 1 10 18.2385 16.1789 
492 1 7.94037 18.2385 18.2385 
489 1 7.94037 16.1789 16.1789 
496 1 12.0596 18.2385 18.2385 
495 1 14.1193 16.1789 18.2385 
494 1 14.1193 18.2385 16.1789 
493 1 12.0596 16.1789 16.1789 
500 1 16.1789 18.2385 18.2385 
499 1 18.2385 16.1789 18.2385 
498 1 18.2385 18.2385 16.1789 
497 1 16.1789 16.1789 16.1789 
ITEM: TIMESTEP
50
ITEM: NUMBER OF ATOMS
500
ITEM: BOX BOUNDS pp pp pp
-2.9813732202599519e-01 2.0298137322026044e+01
-2.9813732202599519e-01 2.0298137322026044e+01
-2.9813732202599519e-01 2.0298137322026044e+01
ITEM: ATOMS id type x y z 
1 1 -0.417703 -0.227002 -0.180169 
2 1 1.62165 1.60093 -0.446204 
3 1 1.83718 -0.298122 1.86961 
4 1 -0.223245 1.70259 1.67546 
21 1 -0.171962 3.7541 -0.279146 
23 1 1.78788 3.70736 1.65621 
51 1 -0.333092 -0.222358 3.89858 
52 1 1.64174 1.67839 3.76082 
71 1 -0.258414 3.72912 3.74764 
5 1 3.75196 -0.237867 -0.155078 
8 1 3.73403 1.86257 1.69639 
25 1 3.84232 3.70461 -0.227343 
55 1 3.70576 -0.41123 3.77737 
75 1 3.87703 3.87527 3.70691 
6 1 5.79158 1.7039 -0.416792 
7 1 5.83579 -0.362223 1.84082 
27 1 5.99529 3.72684 1.74001 
56 1 5.78845 1.64401 3.73805 
9 1 8.0543 -0.1989 -0.311558 
12 1 8.0735 1.84305 1.66248 
29 1 7.93674 3.86944 -0.2613 
59 1 7.88498 -0.360963 3.93512 
79 1 7.95717 3.848 3.88061 
10 1 10.0477 1.77041 -0.3878 
11 1 10.1119 -0.343121 1.87629 
31 1 10.0698 3.82801 1.72336 
60 1 10.0879 1.62836 3.88975 
13 1 12.1735 -0.197466 -0.321802 
14 1 14.0258 1.81696 -0.254483 
15 1 14.0404 -0.392146 1.91086 
16 1 11.9991 1.75913 1.82031 
33 1 11.9367 3.79358 -0.252618 
35 1 14.1435 3.81296 1.82293 
63 1 12.1131 -0.276768 3.93954 
64 1 14.0753 1.84066 3.69667 
83 1 11.9217 3.7824 3.77448 
17 1 16.1705 -0.283076 -0.336977 
18 1 18.2628 1.7259 -0.236411 
19 1 18.1271 -0.308298 1.66743 
20 1 16.1958 1.67953 1.80361 
37 1 16.2524 3.85253 -0.180187 
39 1 18.3309 3.92518 1.70165 
67 1 16.1898 -0.219392 3.84887 
68 1 18.3354 1.70121 3.72024 
87 1 16.3162 3.83381 3.83778 
22 1 1.75312 5.79157 -0.382236 
24 1 -0.280878 5.82056 1.67638 
41 1 -0.35376 8.0052 -0.414204 
42 1 1.72095 7.97758 1.79916 
72 1 1.81015 5.75288 3.84521 
91 1 -0.326597 7.88113 3.91036 
251 1 1.75351 9.9121 -0.380844 
252 1 -0.318155 9.97465 1.84611 
301 1 1.7174 9.90168 3.77573 
28 1 3.85768 5.98134 1.85879 
43 1 3.77723 7.9786 -0.40607 
93 1 3.78615 8.04588 3.78416 
26 1 5.89183 5.86482 -0.343616 
44 1 5.74923 8.05906 1.7957 
76 1 5.72505 5.88709 3.92268 
254 1 3.67406 10.0288 1.5997 
253 1 5.96818 10.0723 -0.314623 
303 1 5.76763 10.1358 3.80095 
32 1 7.86872 5.8249 1.82405 
45 1 8.03961 7.86243 -0.202136 
95 1 7.78143 7.8245 3.90325 
30 1 9.9132 5.83868 -0.338398 
46 1 9.98969 7.89562 1.71011 
80 1 9.91122 5.93579 3.81688 
256 1 8.01151 9.92048 1.85479 
255 1 9.99243 10.0795 -0.323922 
305 1 9.92808 9.99437 3.7432 
34 1 13.9885 5.73912 -0.310207 
36 1 11.9563 5.92552 1.65744 
47 1 12.1461 7.98752 -0.179291 
48 1 14.1533 7.9398 1.88173 
84 1 14.1947 5.83517 3.87597 
97 1 12.0501 7.95539 3.68697 
257 1 14.268 9.89767 -0.317043 
258 1 12.1726 10.1022 1.79388 
307 1 14.1566 9.95078 3.76345 
38 1 18.3012 5.83156 -0.410331 
40 1 16.1508 5.78379 1.66396 
49 1 16.2771 7.81507 -0.221835 
50 1 18.3039 7.90761 1.81686 
88 1 18.2357 5.79389 3.70234 
99 1 16.2587 7.97691 3.8529 
259 1 18.1618 9.96285 -0.257704 
260 1 16.2554 9.98165 1.7999 
309 1 18.132 9.97259 3.78947 
53 1 1.70674 -0.220963 5.78849 
54 1 -0.169387 1.80379 5.93304 
73 1 1.8734 3.72085 5.89326 
101 1 -0.391742 -0.411158 7.89057 
102 1 1.80944 1.80345 8.06792 
111 1 -0.318086 3.80043 8.00504 
126 1 1.69676 -0.431997 9.91516 
127 1 -0.179078 1.83678 9.9824 
136 1 1.69819 3.88154 9.92952 
58 1 3.7946 1.84503 5.82676 
103 1 3.79541 -0.322726 7.90874 
113 1 3.92178 3.74433 7.94009 
57 1 5.91767 -0.329335 5.90562 
77 1 5.89532 3.88887 5.82257 
104 1 5.94508 1.87381 8.04129 
129 1 3.71954 1.76606 9.9468 
128 1 5.76791 -0.274701 9.98092 
138 1 5.83424 3.76227 9.93679 
62 1 7.9242 1.78245 5.80762 
105 1 7.81268 -0.215811 7.9977 
115 1 7.96389 3.88902 8.041 
61 1 10.1116 -0.257106 5.89419 
81 1 9.89197 3.81941 5.91853 
106 1 9.94677 1.86931 7.82688 
131 1 7.8364 1.82947 10.0644 
130 1 9.99648 -0.330893 9.9695 
140 1 10.0362 3.91762 10.0794 
65 1 14.2382 -0.201879 5.98297 
66 1 12.0496 1.79706 5.78034 
85 1 13.9971 3.94375 5.78474 
107 1 12.027 -0.266424 8.00252 
108 1 14.0261 1.88196 7.83572 
117 1 12.0965 3.71642 7.85016 
132 1 14.0364 -0.347264 10.0103 
133 1 11.9767 1.86982 9.95412 
142 1 14.0573 3.95045 10.0353 
69 1 18.3491 -0.229046 5.88624 
70 1 16.2293 1.89687 5.77454 
89 1 18.2945 3.69374 5.74148 
109 1 16.2175 -0.153695 7.83223 
110 1 18.1963 1.8364 8.04537 
119 1 16.1323 3.86041 7.88394 
134 1 18.2152 -0.335886 10.0224 
135 1 16.0403 1.79478 10.0679 
144 1 18.2691 3.93183 9.96786 
74 1 -0.224891 5.72236 5.99767 
92 1 1.77915 8.03184 5.85899 
112 1 1.80699 5.98435 8.00816 
121 1 -0.180306 7.97475 7.83341 
302 1 -0.257252 10.1078 5.83981 
351 1 1.92014 10.1038 7.96791 
137 1 -0.180647 5.78143 9.96493 
146 1 1.74894 8.00235 9.99885 
376 1 -0.211508 9.90876 10.0565 
78 1 3.73638 5.76167 5.85451 
122 1 3.86451 7.8215 8.04429 
94 1 5.76551 7.96729 5.95118 
114 1 5.92377 5.79631 7.87064 
304 1 3.90419 10.1375 5.94563 
352 1 5.98361 9.9981 8.01069 
139 1 3.7996 5.86102 10.1198 
147 1 5.98483 7.99037 10.101 
377 1 3.81457 9.99881 10.111 
82 1 7.83559 5.99409 5.83257 
123 1 7.91356 7.97049 8.04016 
96 1 10.0191 7.9595 5.78066 
116 1 10.1435 5.83917 7.87308 
306 1 7.99074 9.93154 5.83648 
353 1 9.9314 10.0844 7.98984 
378 1 8.06304 9.97633 9.91769 
141 1 7.99681 5.86989 10.0373 
148 1 10.0365 7.90185 9.90921 
86 1 12.1163 5.84973 5.86642 
98 1 14.0323 7.83661 5.91811 
118 1 14.1093 5.89805 7.97493 
124 1 12.1408 8.03359 7.86148 
308 1 12.0811 10.0896 5.80152 
354 1 14.1475 10.0215 7.81005 
379 1 12.1219 10.0323 10.0772 
143 1 12.198 5.96027 10.0235 
149 1 14.1079 7.91079 9.90611 
90 1 16.1215 5.9264 5.7503 
100 1 18.2836 7.85499 5.87074 
120 1 18.2085 5.85304 7.80078 
125 1 16.071 7.95425 7.93041 
355 1 18.1136 9.95281 8.07379 
310 1 16.247 9.97153 5.88132 
380 1 16.1138 10.0479 10.0977 
145 1 16.1737 5.76801 10.1049 
150 1 18.1864 7.79416 9.95084 
151 1 -0.190574 -0.288659 11.9508 
152 1 1.76486 1.70613 12.0103 
153 1 1.66643 -0.324297 13.9998 
154 1 -0.310209 1.62109 14.1928 
171 1 -0.313602 3.77161 12 
173 1 1.71479 3.79497 14.0582 
155 1 3.78729 -0.240956 11.9088 
158 1 3.77936 1.63867 14.0937 
175 1 3.84657 3.89028 12.0043 
156 1 5.75122 1.74557 12.1261 
157 1 5.77744 -0.41188 14.0872 
177 1 5.75813 3.88456 14.2393 
159 1 7.81631 -0.199539 12.0872 
162 1 8.01266 1.76341 14.194 
179 1 7.80586 3.81616 12.025 
160 1 9.91048 1.67376 12.1758 
161 1 9.93939 -0.191024 14.2387 
181 1 9.90186 3.82325 14.0576 
163 1 12.0679 -0.363116 12.1938 
164 1 14.1605 1.8717 12.0477 
165 1 14.1735 -0.410657 14.076 
166 1 12.1996 1.74796 14.1498 
183 1 12.1188 3.76064 12.0526 
185 1 14.2608 3.81647 14.0398 
167 1 16.1348 -0.279417 11.9593 
168 1 18.32 1.65747 12.1659 
169 1 18.233 -0.369741 14.2229 
170 1 16.115 1.62971 14.0865 
187 1 16.3214 3.74372 12.1306 
189 1 18.3456 3.76 14.2356 
172 1 1.85601 5.92375 12.071 
174 1 -0.205927 5.98611 14.0451 
191 1 -0.381087 7.87745 12.1445 
192 1 1.89427 7.83632 14.1792 
402 1 -0.292743 9.95622 13.9859 
401 1 1.86602 10.0866 12.0561 
403 1 5.91526 9.92989 12.0867 
404 1 3.93606 10.0056 13.9954 
178 1 3.87297 5.94227 14.2227 
193 1 3.90053 7.96818 12.105 
176 1 5.84464 5.81716 11.9909 
194 1 5.98355 7.86488 14.1305 
405 1 10.1119 10.048 12.0936 
406 1 7.94071 9.93232 14.2004 
182 1 8.04768 5.99158 14.121 
195 1 8.10943 7.90232 11.9599 
180 1 10.1442 5.91806 12.0089 
196 1 10.0921 8.03998 14.2186 
408 1 12.1392 9.98794 14.0625 
407 1 14.1548 10.107 11.985 
184 1 14.1707 5.96977 12.1924 
186 1 12.1616 5.77313 14.2198 
197 1 12.1878 7.83453 12.1177 
198 1 14.2263 7.97835 14.1967 
410 1 16.091 10.1155 14.1675 
409 1 18.2557 10.1437 11.9786 
188 1 18.2123 5.86842 11.9919 
190 1 16.1577 5.91829 14.1794 
199 1 16.3018 8.06828 12.1777 
200 1 18.327 8.01015 14.0459 
201 1 -0.242625 -0.374029 16.2326 
202 1 1.73955 1.64125 16.2509 
203 1 1.70198 -0.386623 18.2148 
204 1 -0.273514 1.80146 18.1815 
221 1 -0.364187 3.67635 16.1437 
223 1 1.72333 3.89662 18.1795 
205 1 3.73916 -0.252598 16.126 
208 1 3.67448 1.78563 18.2909 
225 1 3.80208 3.76343 16.1722 
206 1 5.98633 1.86387 16.1734 
207 1 5.87785 -0.17295 18.1965 
227 1 5.87755 3.84743 18.1586 
209 1 8.05471 -0.278415 16.2915 
212 1 7.85841 1.79359 18.2549 
229 1 7.84584 3.94817 16.2868 
210 1 9.92228 1.8052 16.2314 
211 1 9.88523 -0.334049 18.3782 
231 1 9.89412 3.88422 18.1328 
213 1 12.1394 -0.319067 16.2659 
214 1 14.2386 1.72175 16.2858 
215 1 14.0938 -0.301329 18.2704 
216 1 11.9542 1.69558 18.1698 
233 1 12.111 3.86575 16.2561 
235 1 14.0626 3.73614 18.3286 
217 1 16.1816 -0.423871 16.1321 
218 1 18.2431 1.62441 16.2831 
219 1 18.1483 -0.24278 18.1778 
220 1 16.192 1.7751 18.1616 
237 1 16.234 3.88957 16.0887 
239 1 18.1748 3.68977 18.3218 
452 1 -0.206519 9.98857 18.1976 
451 1 1.83458 9.98175 16.0978 
222 1 1.73586 5.84001 16.068 
224 1 -0.413485 5.77854 18.1858 
241 1 -0.25508 8.0051 16.2576 
242 1 1.63969 7.98812 18.2076 
453 1 5.83468 9.98467 16.2208 
454 1 3.90836 9.9099 18.1408 
228 1 3.76864 5.76807 18.3385 
243 1 3.69672 7.84691 16.301 
226 1 5.78479 6.02181 16.1002 
244 1 5.90138 7.96623 18.1737 
455 1 10.0487 9.97702 16.3093 
456 1 7.91965 9.9593 18.2168 
232 1 7.92713 5.86726 18.2145 
245 1 7.90561 8.04491 16.0867 
230 1 9.92805 5.96395 16.0878 
246 1 10.1018 7.99977 18.13 
458 1 12.1395 9.9111 18.2645 
457 1 14.0533 10.0815 16.2482 
248 1 14.1473 7.78118 18.2206 
234 1 14.0293 5.88924 16.075 
236 1 11.9099 5.96081 18.2577 
247 1 12.1044 8.0359 16.076 
460 1 16.2444 10.0268 18.2808 
459 1 18.2505 10.0628 16.1795 
250 1 18.2547 8.01956 18.357 
249 1 16.3134 7.99472 16.2656 
240 1 16.1283 5.74111 18.1429 
238 1 18.3601 5.85223 16.2558 
261 1 -0.345318 11.9155 -0.272646 
262 1 1.75926 14.1684 -0.286754 
263 1 1.70713 12.1711 1.65925 
264 1 -0.394727 14.0689 1.75758 
311 1 -0.416739 12.1834 3.85061 
312 1 1.90926 13.9895 3.87217 
265 1 3.93506 12.0648 -0.410887 
268 1 3.89918 14.178 1.63405 
315 1 3.73641 12.0337 3.72318 
266 1 5.89832 14.0469 -0.318683 
267 1 5.97124 12.1019 1.72076 
316 1 5.88573 14.1941 3.87707 
269 1 8.06258 12.1369 -0.320838 
272 1 7.88201 14.1546 1.88994 
319 1 7.92292 11.9944 3.87933 
270 1 10.0799 14.1021 -0.231179 
271 1 9.96352 12.0352 1.67725 
320 1 10.0452 14.2029 3.74915 
273 1 12.2125 11.9106 -0.376 
274 1 14.1262 14.0604 -0.162819 
275 1 14.1446 11.972 1.883 
276 1 12.0358 14.0695 1.6464 
323 1 11.9632 12.069 3.82985 
324 1 14.0607 14.1397 3.74868 
277 1 16.1738 11.9507 -0.368174 
278 1 18.3069 14.1408 -0.287624 
279 1 18.0816 12.063 1.86765 
280 1 16.0596 14.0878 1.67944 
327 1 16.1342 11.9762 3.93934 
328 1 18.0867 14.2287 3.87002 
281 1 -0.218904 16.1625 -0.410577 
282 1 1.75546 18.26 -0.304017 
283 1 1.76265 16.1027 1.67256 
284 1 -0.327408 18.3085 1.84721 
331 1 -0.253879 16.0329 3.80798 
332 1 1.62097 18.2675 3.78719 
285 1 3.97715 16.1376 -0.348246 
288 1 3.93343 18.0773 1.83153 
335 1 3.91332 16.3009 3.86892 
286 1 5.88175 18.3001 -0.328106 
287 1 5.85162 16.1127 1.80191 
336 1 5.97826 18.2926 3.81534 
289 1 7.85316 16.1934 -0.371669 
292 1 7.92572 18.2175 1.79998 
339 1 7.92713 16.1084 3.83679 
290 1 10.1172 18.1506 -0.361953 
291 1 9.89796 16.1346 1.74173 
340 1 9.87791 18.3379 3.81519 
293 1 11.9773 16.083 -0.186959 
294 1 14.0938 18.2795 -0.250542 
295 1 14.1931 16.2652 1.79749 
296 1 11.9778 18.2596 1.86569 
343 1 11.9064 16.1054 3.80547 
344 1 14.0872 18.1498 3.97412 
297 1 16.1363 16.0703 -0.370502 
298 1 18.1113 18.2563 -0.213509 
299 1 18.1464 16.3195 1.69955 
300 1 16.0596 18.2612 1.78354 
347 1 16.2167 16.1903 3.8811 
348 1 18.3541 18.301 3.9531 
313 1 1.78945 11.9506 5.96576 
314 1 -0.250096 14.0043 5.89817 
356 1 -0.211407 11.938 7.97779 
357 1 1.69622 14.1531 8.0167 
381 1 1.71709 12.0358 9.86869 
382 1 -0.169674 14.2216 10.0761 
318 1 3.83321 14.1313 5.8355 
358 1 3.96417 12.2217 8.06873 
317 1 5.90095 12.0499 5.97041 
359 1 5.97405 14.2597 8.06162 
384 1 3.70146 14.183 9.9916 
383 1 5.91939 12.1563 10.0537 
322 1 7.83056 14.2286 5.84558 
360 1 7.93272 11.9418 7.82274 
321 1 9.97764 11.9545 5.78973 
361 1 9.98176 14.0093 7.96622 
386 1 8.04364 14.0389 9.93662 
385 1 9.98184 11.9442 10.0565 
325 1 14.177 12.1458 5.78601 
326 1 12.112 14.0525 5.83193 
362 1 11.9684 12.1505 7.96559 
363 1 14.0418 14.015 7.85395 
387 1 14.1499 12.2122 10.0249 
388 1 12.083 14.1555 10.1049 
365 1 18.2644 14.2024 8.02201 
364 1 16.0637 12.1622 7.98551 
330 1 16.1701 14.1138 5.8519 
329 1 18.1391 11.9466 5.87297 
389 1 18.2624 12.1225 9.91936 
390 1 16.1357 14.1756 10.0037 
367 1 1.81133 18.1194 7.85513 
366 1 -0.17435 16.1266 7.84401 
334 1 -0.239228 18.3359 5.8919 
333 1 1.77102 16.1689 5.81615 
391 1 1.87446 16.2751 10.1045 
392 1 -0.204864 18.1804 10.0617 
369 1 5.81932 18.1463 7.91907 
337 1 5.94445 16.3293 5.88977 
368 1 3.68423 16.2244 7.79441 
338 1 3.81173 18.3293 5.98735 
394 1 3.82249 18.3405 10.007 
393 1 5.75229 16.2655 9.92618 
371 1 10.0762 18.3766 8.05469 
341 1 9.94693 16.1541 6.02355 
370 1 7.95695 16.1814 8.05771 
342 1 8.10149 18.3601 5.87448 
396 1 7.85959 18.3644 9.93876 
395 1 10.0533 16.2897 10.0723 
373 1 14.0729 18.2359 7.84026 
372 1 11.9611 16.1638 8.04068 
346 1 12.1455 18.2114 5.89646 
345 1 14.0508 16.146 5.87087 
397 1 14.0432 16.0813 9.94908 
398 1 12.0172 18.3728 10.0343 
375 1 18.158 18.2923 7.84342 
374 1 16.1181 16.2731 8.04746 
350 1 16.2888 18.1134 5.99456 
349 1 18.3544 16.116 5.8238 
399 1 18.2352 16.2198 10.0096 
400 1 16.0254 18.3717 10.0948 
411 1 -0.32373 12.1465 11.9364 
412 1 1.72451 14.0076 12.1725 
413 1 1.84298 12.1484 13.9892 
414 1 -0.272453 14.1041 14.0658 
415 1 3.76463 12.1925 11.9553 
418 1 3.7735 14.1503 14.2185 
416 1 5.78261 14.1983 12.0342 
417 1 5.76382 11.9553 14.0618 
419 1 7.9017 11.9186 12.1335 
422 1 7.90171 14.1183 13.9765 
420 1 9.95598 14.2144 12.1092 
421 1 9.94541 12.0419 14.1864 
423 1 12.0374 12.0168 12.183 
424 1 14.1785 14.2362 12.1449 
425 1 14.157 12.0767 14.0571 
426 1 11.9681 14.2495 14.0528 
427 1 16.1835 12.0998 12.0607 
428 1 18.3299 13.9799 11.9768 
429 1 18.3394 11.9955 14.1945 
430 1 16.1972 14.1824 14.179 
431 1 -0.217581 16.1991 12.0906 
432 1 1.75335 18.1428 12.1299 
433 1 1.6529 16.1192 14.0641 
434 1 -0.318848 18.1242 14.145 
435 1 3.81013 16.1507 12.0168 
438 1 3.87341 18.1573 13.9934 
436 1 6.01773 18.1424 12.042 
437 1 5.9698 16.2539 14.271 
439 1 8.00169 16.2125 11.9047 
442 1 7.82183 18.1333 14.2501 
440 1 9.87413 18.1773 12.2066 
441 1 9.86509 16.151 14.0844 
443 1 12.1182 16.2436 11.94 
444 1 14.0229 18.2335 12.1344 
445 1 14.2036 16.2412 14.0658 
446 1 11.9307 18.212 14.1266 
447 1 16.3082 16.2002 11.9219 
448 1 18.2248 18.1688 11.9492 
449 1 18.3493 16.0056 13.9748 
450 1 16.3203 18.0959 14.1146 
464 1 -0.338916 14.1668 18.123 
463 1 1.71381 12.1464 18.3152 
461 1 -0.175973 12.0234 16.2242 
462 1 1.69948 14.0457 16.0827 
467 1 5.89153 11.9918 18.3065 
466 1 5.94632 14.0197 16.2501 
468 1 3.7663 13.992 18.1235 
465 1 3.75487 11.9393 16.11 
471 1 10.0524 12.1845 18.3488 