ITEM: TIMESTEP
0
ITEM: NUMBER OF ATOMS
250
ITEM: BOX BOUNDS pp pp pp
2.1246542862245494e+00 1.7875345713775143e+01
2.1246542862245494e+00 1.7875345713775143e+01
2.1246542862245494e+00 1.7875345713775143e+01
ITEM: ATOMS id type x y z 
39 1 5.7323 4.56074 3.06008 
29 1 3.71541 8.09629 6.05882 
106 1 6.25109 6.8961 6.96562 
103 1 3.75798 2.79618 6.77587 
160 1 3.22472 9.02068 3.07221 
63 1 4.69581 5.27434 5.6317 
6 1 5.30202 2.67767 4.80293 
4 1 2.99583 4.22547 3.85964 
186 1 3.56618 6.62631 8.2581 
95 1 4.85715 8.93942 8.48057 
128 1 5.33549 7.5181 4.03089 
86 1 4.90758 4.40873 8.31916 
142 1 5.98139 6.31561 9.70399 
242 1 2.19243 6.719 4.33361 
158 1 6.33386 9.3696 5.79744 
149 1 6.08425 9.58377 2.64184 
28 1 2.34372 5.08489 6.66005 
104 1 7.18245 4.04807 6.6044 
68 1 7.30743 8.98457 8.69657 
16 1 7.38542 5.95027 4.67276 
80 1 7.53094 3.87066 9.41442 
17 1 8.15419 3.10617 4.05027 
15 1 10.0735 4.07803 8.01044 
210 1 12.546 8.47979 7.99102 
43 1 11.0823 6.74023 6.63544 
235 1 8.46141 6.17366 8.07257 
153 1 8.55498 7.87866 5.94068 
117 1 9.56141 4.88813 5.61452 
74 1 11.182 6.62243 9.44946 
161 1 9.80218 8.49014 8.14475 
58 1 11.5473 3.00536 5.60299 
14 1 8.06714 8.10815 3.29779 
10 1 10.8786 3.9334 3.25106 
44 1 10.3447 6.90495 4.05298 
162 1 11.0785 9.19224 2.63722 
229 1 10.7887 9.42091 5.50417 
123 1 8.8153 5.3041 2.45632 
26 1 12.5737 5.48496 4.86564 
59 1 12.4345 4.83223 7.76557 
42 1 14.0652 6.72444 6.77454 
81 1 15.6781 5.08978 4.8766 
60 1 14.9575 8.2678 9.17905 
154 1 14.0452 9.35463 2.52573 
8 1 15.5032 4.74921 7.86951 
56 1 16.7006 7.16791 6.77895 
61 1 17.6949 8.90104 8.32612 
12 1 17.5385 9.40541 5.21488 
46 1 13.9948 6.69846 2.8407 
41 1 12.9706 8.42685 4.8724 
19 1 13.76 4.01534 3.2527 
37 1 16.9875 6.4206 9.51222 
18 1 16.4177 5.58138 2.47476 
246 1 14.0003 3.50802 6.19404 
9 1 17.5864 3.48058 8.77666 
54 1 13.8304 5.96178 9.754 
172 1 16.6679 3.00582 2.76547 
47 1 15.4294 7.86267 4.58061 
70 1 14.3656 3.04726 9.47795 
34 1 16.76 3.06706 5.83113 
118 1 15.1176 9.50419 6.86694 
88 1 6.00804 7.10884 14.3006 
115 1 5.02015 4.53258 15.922 
72 1 4.73975 6.20319 12.2857 
96 1 5.86359 8.52085 11.4491 
196 1 2.47819 2.79066 11.7009 
112 1 6.47765 6.66898 17.3471 
5 1 3.46048 4.29465 13.4708 
1 1 3.49185 6.5093 14.9566 
114 1 3.24899 8.50146 13.3645 
20 1 4.72286 8.75674 16.0333 
24 1 2.42955 4.23929 16.4258 
66 1 5.48618 3.765 11.1121 
38 1 6.27555 3.96498 13.8266 
121 1 3.5788 7.95748 10.5283 
2 1 3.33551 4.9963 10.3939 
226 1 3.48925 6.43804 17.6132 
250 1 3.85411 2.58171 17.7532 
67 1 7.35245 5.87446 12.2044 
201 1 2.17775 9.08239 15.887 
87 1 5.92629 9.92048 13.604 
22 1 7.39388 8.77065 15.9951 
82 1 8.19818 9.84018 11.6099 
122 1 8.44243 7.45705 10.4502 
244 1 7.41702 3.62214 16.7682 
52 1 9.61606 5.00309 10.7193 
78 1 7.94887 5.74562 15.318 
98 1 8.03234 3.07675 12.0594 
13 1 8.64168 2.82411 14.5092 
214 1 10.3513 7.60662 12.0932 
23 1 9.49284 7.4755 16.9221 
113 1 10.9619 3.25033 12.9011 
228 1 10.6894 7.10958 14.6675 
227 1 8.34966 8.2138 13.5763 
91 1 10.1723 4.57075 15.9195 
49 1 11.7852 6.16498 17.4692 
92 1 9.6596 5.35727 13.3064 
204 1 10.9301 9.72911 13.3782 
124 1 12.1821 5.89711 12.0709 
164 1 10.6199 9.70081 10.3177 
48 1 12.4549 8.47613 15.9937 
94 1 12.583 5.34479 14.8058 
108 1 12.3854 3.33856 16.7652 
239 1 10.0569 9.61665 15.7818 
116 1 9.57293 2.28433 17.4779 
73 1 11.86 3.89983 10.2805 
111 1 16.5621 3.43688 13.9309 
119 1 14.5593 7.09761 16.1095 
231 1 15.2784 9.84593 16.0605 
125 1 13.1908 7.73331 13.5169 
102 1 16.0799 8.32039 13.813 
193 1 12.7502 8.44288 10.944 
110 1 14.9799 4.38995 16.3362 
75 1 14.8279 9.87835 11.6143 
83 1 13.6881 3.87542 12.1997 
109 1 16.1761 4.27727 10.9863 
65 1 15.0656 7.02307 11.6038 
120 1 16.8934 6.26383 15.5061 
100 1 14.8953 5.4667 13.6599 
51 1 17.511 6.2126 12.4938 
190 1 17.1966 9.05009 11.1747 
85 1 13.7434 2.91755 14.6552 
25 1 16.5941 8.0609 17.8418 
134 1 6.45531 12.1549 2.91043 
168 1 4.92755 16.0815 3.73735 
182 1 4.29677 13.1693 8.30566 
166 1 4.67837 13.0889 5.56031 
139 1 4.48351 15.8498 6.40852 
167 1 6.64142 14.3813 7.10039 
157 1 3.84418 10.8505 6.88212 
151 1 2.70043 14.8006 4.44305 
62 1 4.63542 10.6187 4.39042 
71 1 6.35165 11.552 7.79711 
183 1 6.53349 14.4543 4.34957 
175 1 7.19853 16.8328 5.42582 
156 1 4.35154 13.4388 2.90475 
211 1 5.38231 15.4921 9.31334 
40 1 6.8645 13.4473 9.60721 
155 1 2.86735 15.268 8.99085 
126 1 2.44566 11.8902 4.4135 
249 1 6.43612 17.5414 2.37556 
57 1 6.29695 17.5279 7.77188 
177 1 3.1125 10.8583 9.46481 
191 1 7.31092 12.2511 5.47186 
138 1 2.52498 17.3097 4.48845 
150 1 4.03954 17.7962 9.47105 
45 1 2.21516 13.7154 6.70872 
31 1 12.213 17.6953 8.13867 
143 1 8.15921 15.9358 2.90811 
188 1 8.5884 10.5833 6.9352 
236 1 9.17289 13.2765 7.86618 
192 1 8.40981 15.8809 8.29641 
198 1 8.85189 14.8395 5.57182 
187 1 10.8424 10.8375 7.97766 
179 1 10.4969 12.4206 5.40241 
53 1 10.1163 17.0425 4.37595 
170 1 8.86604 13.3596 3.40138 
135 1 8.65049 10.4957 4.17674 
148 1 11.3962 14.3244 3.84911 
147 1 10.9796 15.4506 6.59366 
145 1 8.66734 11.5286 9.58102 
107 1 12.239 17.1377 2.9151 
199 1 12.0898 13.1224 7.51229 
220 1 11.216 15.3076 9.19722 
136 1 12.4558 11.2841 3.69446 
169 1 9.21557 17.799 6.87405 
178 1 10.5157 12.0312 2.16205 
203 1 11.1465 12.6467 9.86665 
197 1 9.71711 17.7244 9.94302 
174 1 15.2744 17.4328 7.52981 
64 1 15.193 10.8959 4.71524 
7 1 15.0389 17.576 4.38564 
99 1 12.8877 10.8406 6.24606 
176 1 17.1403 12.9499 9.13507 
195 1 13.289 10.715 9.06845 
180 1 14.956 12.6841 7.19345 
137 1 16.6394 15.914 2.75125 
35 1 17.7611 16.7007 7.24995 
140 1 13.5066 13.5072 5.09045 
21 1 16.0767 13.3105 4.46919 
230 1 15.7887 15.511 5.61465 
238 1 14.1056 15.1523 3.02802 
130 1 16.8003 10.6643 2.51102 
181 1 17.0275 11.2949 6.93252 
173 1 13.5463 15.1698 7.41599 
225 1 16.0629 14.9643 8.1783 
163 1 13.0114 16.5099 5.38772 
171 1 14.2276 16.1623 9.82827 
131 1 14.6019 12.2963 2.24351 
185 1 15.8206 10.7634 9.42684 
132 1 17.6111 13.4427 2.21088 
69 1 14.0265 13.3425 9.88388 
127 1 5.17733 12.4419 13.3361 
240 1 3.60731 15.9384 17.2198 
209 1 6.17105 14.7095 11.9522 
241 1 4.56617 15.4276 14.2732 
133 1 6.05673 11.5864 16.0577 
232 1 3.99742 13.4319 15.8665 
30 1 6.69216 14.0742 14.6134 
159 1 4.03134 13.2042 10.8428 
200 1 6.96383 16.9723 10.6412 
233 1 2.77402 13.3732 13.2416 
50 1 6.0266 14.8079 17.0801 
97 1 3.55763 10.8873 14.6804 
165 1 3.37131 15.6297 11.4423 
243 1 5.95884 17.5026 15.5783 
152 1 3.7603 11.1773 17.4223 
141 1 4.9817 17.484 12.6406 
208 1 5.74659 11.0063 10.4336 
202 1 3.6425 10.6519 12.0189 
218 1 7.23522 16.5183 13.4321 
212 1 7.37394 12.3667 12.0842 
234 1 3.38664 17.8655 14.7371 
194 1 12.5169 11.1398 11.607 
144 1 8.30776 16.2209 15.8203 
184 1 10.4108 15.3234 17.4654 
213 1 8.08779 11.2048 14.3371 
3 1 8.95695 14.5746 10.702 
93 1 10.1841 12.2577 15.206 
219 1 10.8129 14.9305 14.7705 
247 1 8.97924 14.0736 13.4556 
221 1 9.79218 16.5663 12.3649 
248 1 11.8436 14.2053 11.9511 
237 1 9.99819 12.0282 12.1582 
189 1 12.2293 12.2975 13.9411 
146 1 8.3273 13.473 16.5484 
245 1 8.4708 10.7556 17.3342 
36 1 12.2727 17.2784 10.9965 
32 1 10.8454 17.5013 15.3146 
129 1 12.4895 13.5706 16.8807 
215 1 12.5028 10.8963 16.5061 
89 1 12.5021 16.7512 13.3743 
79 1 17.4643 16.4367 13.2498 
84 1 13.777 10.1756 13.9266 
216 1 16.2199 13.857 13.8772 
76 1 15.1936 17.6112 12.0777 
101 1 17.7457 15.1012 15.5113 
207 1 17.0103 11.9594 11.5284 
77 1 16.5462 14.6913 11.2573 
11 1 16.9347 17.5082 16.2281 
90 1 13.4119 14.3524 14.4573 
223 1 14.6266 17.5251 17.3987 
33 1 14.5063 12.2659 15.2986 
105 1 12.9486 16.2423 16.1739 
205 1 16.7238 10.8086 13.6832 
224 1 14.5495 12.5942 12.421 
217 1 14.2032 15.2212 12.195 
206 1 15.3448 14.6112 16.5058 
222 1 17.158 12.1408 15.906 
55 1 15.1537 16.4849 14.5607 
27 1 16.8466 17.0629 10.05 
ITEM: TIMESTEP
50
ITEM: NUMBER OF ATOMS
250
ITEM: BOX BOUNDS pp pp pp
2.1246542862245494e+00 1.7875345713775143e+01
2.1246542862245494e+00 1.7875345713775143e+01
2.1246542862245494e+00 1.7875345713775143e+01
ITEM: ATOMS id type x y z 
39 1 5.74559 4.6056 2.93934 
29 1 3.7875 8.05365 6.09779 
106 1 6.12613 6.94551 6.99474 
103 1 3.75281 2.80025 6.6159 
160 1 3.19262 8.88827 2.91264 
63 1 4.74483 5.29888 5.59743 
6 1 5.40066 2.71292 4.7779 
4 1 2.94305 4.21282 3.95282 
186 1 3.60517 6.47192 8.26591 
95 1 4.81694 8.96107 8.53439 
128 1 5.23434 7.42045 4.02355 
86 1 4.96734 4.3394 8.2599 
142 1 6.01875 6.41672 9.72639 
242 1 2.4174 6.71634 4.34785 
158 1 6.29284 9.4327 5.7713 
149 1 6.11711 9.57288 2.55263 
28 1 2.33959 5.13199 6.65503 
104 1 7.15858 3.99455 6.55143 
68 1 7.32731 9.01891 8.73976 
16 1 7.42521 5.86938 4.65716 
80 1 7.54108 3.80826 9.38426 
17 1 8.18394 3.08084 4.00267 
15 1 10.05 4.11302 8.10818 
210 1 12.5162 8.3799 7.93262 
43 1 11.0746 6.76015 6.60048 
235 1 8.52247 6.15636 8.13938 
153 1 8.51226 7.93422 6.00778 
117 1 9.61218 4.90521 5.60167 
74 1 11.1953 6.67616 9.49343 
161 1 9.80677 8.47245 8.30293 
58 1 11.5503 2.9695 5.69442 
14 1 8.04557 8.08921 3.29794 
10 1 10.9135 3.95058 3.23848 
44 1 10.4061 6.91735 4.02996 
162 1 10.8997 9.15986 2.72102 
229 1 10.7734 9.46386 5.58844 
123 1 8.70393 5.25033 2.5246 
26 1 12.5717 5.56371 4.82606 
59 1 12.5689 4.84402 7.73394 
42 1 14.1595 6.67455 6.75958 
81 1 15.721 5.19538 4.78411 
60 1 15.1011 8.23702 9.0909 
154 1 13.9603 9.3862 2.51341 
8 1 15.5619 4.95074 7.87684 
56 1 16.7357 7.21845 6.74871 
61 1 17.6186 8.97635 8.20624 
12 1 17.4747 9.51079 5.11881 
46 1 14.0522 6.53793 2.81834 
41 1 13.0162 8.45997 4.91443 
19 1 13.8666 3.96204 3.17728 
37 1 16.912 6.42396 9.48359 
18 1 16.4246 5.60778 2.3668 
246 1 13.9981 3.53322 6.28111 
9 1 17.5121 3.50259 8.76773 
54 1 13.8646 5.76702 9.73229 
172 1 16.8024 3.06918 2.80084 
47 1 15.5409 7.94792 4.46212 
70 1 14.4321 3.12086 9.52096 
34 1 16.7328 3.07992 5.96528 
118 1 15.0045 9.53339 6.95599 
88 1 5.83145 6.93447 14.3204 
115 1 5.1851 4.59624 16.0009 
72 1 4.73541 6.18713 12.2217 
96 1 5.99023 8.43759 11.543 
196 1 2.48389 2.77385 11.7572 
112 1 6.45967 6.73482 17.3288 
5 1 3.58133 4.20171 13.4869 
1 1 3.54008 6.45355 14.8914 
114 1 3.3242 8.48282 13.3149 
20 1 4.74422 8.78783 16.1304 
24 1 2.35042 4.22054 16.3985 
66 1 5.43497 3.85775 11.1621 
38 1 6.28624 3.87594 13.7242 
121 1 3.53181 7.92151 10.6203 
2 1 3.24968 5.03337 10.4989 
226 1 3.46325 6.47397 17.5859 
250 1 3.95344 2.65591 17.7748 
67 1 7.42608 5.86687 12.1797 
201 1 2.0636 9.09189 15.9394 
87 1 6.01961 9.86573 13.677 
22 1 7.36692 8.85299 15.9822 
82 1 8.23191 9.88622 11.7095 
122 1 8.39674 7.52381 10.4613 
244 1 7.43826 3.6553 16.6281 
52 1 9.52648 4.96357 10.6921 
78 1 7.94095 5.83535 15.2521 
98 1 8.07914 3.06924 11.955 
13 1 8.6514 2.89922 14.4858 
214 1 10.29 7.66289 11.9867 
23 1 9.54037 7.40264 16.9834 
113 1 11.0274 3.30433 12.8325 
228 1 10.6231 7.1293 14.6667 
227 1 8.29379 8.10774 13.6567 
91 1 10.2452 4.5013 15.9844 
49 1 11.8145 6.11979 17.5583 
92 1 9.56827 5.23168 13.3471 
204 1 10.8845 9.8529 13.3165 
124 1 12.2205 5.89711 12.0456 
164 1 10.5258 9.73559 10.3209 
48 1 12.4071 8.37335 16.0331 
94 1 12.476 5.29503 14.7025 
108 1 12.4173 3.37869 16.8685 
239 1 10.0924 9.68447 15.7138 
116 1 9.55648 2.3063 17.5028 
73 1 11.8448 3.98413 10.1054 
111 1 16.5879 3.50593 14.0693 
119 1 14.506 7.07605 16.0586 
231 1 15.2644 9.84139 16.111 
125 1 13.1526 7.72918 13.4779 
102 1 15.9896 8.11497 13.8813 
193 1 12.7457 8.44349 10.8542 
110 1 15.0935 4.30733 16.4752 
75 1 14.8218 9.78426 11.7024 
83 1 13.5907 3.7567 12.245 
109 1 16.1467 4.36777 11.1553 
65 1 15.074 7.08198 11.5765 
120 1 16.868 6.24226 15.4398 
100 1 15.0169 5.54101 13.6825 
51 1 17.5722 6.16749 12.5289 
190 1 17.139 9.02288 11.2348 
85 1 13.7058 2.87416 14.6078 
25 1 16.5177 8.08535 17.9725 
134 1 6.5511 12.1779 3.00573 
168 1 4.91547 16.1809 3.71229 
182 1 4.21198 13.1142 8.16071 
166 1 4.69266 13.0236 5.56329 
139 1 4.48033 15.8468 6.45329 
167 1 6.52559 14.4302 7.00577 
157 1 3.79184 10.7983 6.80871 
151 1 2.76274 14.8456 4.37771 
62 1 4.61273 10.6511 4.36748 
71 1 6.24565 11.4792 7.85254 
183 1 6.49658 14.3873 4.33843 
175 1 7.26218 16.8314 5.44652 
156 1 4.31365 13.4131 2.81484 
211 1 5.46543 15.426 9.32526 
40 1 6.8503 13.3911 9.49097 
155 1 2.88613 15.248 9.06689 
126 1 2.49065 11.9417 4.37933 
249 1 6.43807 17.5668 2.31491 
57 1 6.30516 17.4854 7.78786 
177 1 3.05845 10.8184 9.43212 
191 1 7.26136 12.2143 5.59188 
138 1 2.52186 17.3229 4.43117 
150 1 4.11166 17.7828 9.51053 
45 1 2.08814 13.8861 6.62651 
31 1 12.2259 17.6696 8.11982 
143 1 8.16815 15.8299 2.9488 
188 1 8.60994 10.5186 6.89616 
236 1 9.18016 13.4146 7.76777 
192 1 8.45842 15.7532 8.33718 
198 1 8.87803 14.8744 5.53174 
187 1 10.9167 10.8641 7.93082 
179 1 10.4745 12.3908 5.46838 
53 1 10.043 16.9803 4.32596 
170 1 8.80684 13.3484 3.40174 
135 1 8.70917 10.3896 4.20042 
148 1 11.4652 14.4031 3.92422 
147 1 11.1167 15.4588 6.54361 
145 1 8.58771 11.4594 9.661 
107 1 12.2458 17.2898 2.99972 
199 1 12.1167 13.039 7.55596 
220 1 11.3642 15.2886 9.39616 
136 1 12.4665 11.3474 3.68018 
169 1 9.24198 17.7678 6.87958 
178 1 10.5238 11.9876 2.18631 
203 1 11.0574 12.7205 9.91731 
197 1 9.73602 17.7859 9.98953 
174 1 15.1811 17.4529 7.44306 
64 1 15.1339 10.8417 4.67559 
7 1 15.0764 17.7742 4.27336 
99 1 13.0278 10.9165 6.29745 
176 1 17.1889 13.0362 9.2717 
195 1 13.2857 10.8091 9.0648 
180 1 14.8796 12.7189 7.1994 
137 1 16.6901 15.8703 2.73402 
35 1 17.754 16.6296 6.96249 
140 1 13.4937 13.4173 5.07355 
21 1 16.1155 13.2466 4.37599 
230 1 15.6999 15.497 5.46995 
238 1 13.9507 15.0524 3.05713 
130 1 16.7589 10.7562 2.5974 
181 1 17.0343 11.4057 7.02428 
173 1 13.5517 15.1252 7.5671 
225 1 16.0015 15.0438 8.32953 
163 1 13.0431 16.5515 5.32787 
171 1 14.1862 16.1517 9.77131 
131 1 14.8472 12.3195 2.25399 
185 1 15.8526 10.8627 9.40539 
132 1 17.5281 13.5989 2.05804 
69 1 14.0479 13.3549 9.88952 
127 1 5.22874 12.4249 13.3372 
240 1 3.60596 15.9748 17.2792 
209 1 6.17593 14.7345 11.9406 
241 1 4.4761 15.4364 14.2049 
133 1 6.03221 11.6061 16.1637 
232 1 3.99337 13.4161 15.8528 
30 1 6.69804 13.9606 14.6379 
159 1 3.88365 13.1206 10.8146 
200 1 6.97021 16.9838 10.6294 
233 1 2.73253 13.387 13.2597 
50 1 6.10809 14.7421 17.0859 
97 1 3.56644 10.9993 14.7162 
165 1 3.42411 15.7222 11.4936 
243 1 5.85473 17.402 15.5378 
152 1 3.74634 11.1533 17.4583 
141 1 4.9609 17.4511 12.5093 
208 1 5.74312 11.027 10.4363 
202 1 3.66 10.6267 12.0696 
218 1 7.30171 16.5873 13.463 
212 1 7.39261 12.3688 12.0286 
234 1 3.44054 17.8576 15.0525 
194 1 12.5316 11.2207 11.5218 
144 1 8.27293 16.1441 15.9646 
184 1 10.472 15.2451 17.3729 
213 1 8.03125 11.2504 14.349 
3 1 9.0002 14.5779 10.6971 
93 1 10.1559 12.2482 15.2454 
219 1 10.8749 14.9321 14.8216 
247 1 8.87586 14.1038 13.3964 
221 1 9.79237 16.548 12.503 
248 1 11.7629 14.3217 11.9684 
237 1 10.0111 12.0298 12.2153 
189 1 12.193 12.2727 13.8748 
146 1 8.45574 13.5463 16.5333 
245 1 8.36982 10.7047 17.4021 
36 1 12.2473 17.161 11.0041 
32 1 10.8019 17.5756 15.1411 
129 1 12.4719 13.4143 16.9175 
215 1 12.4381 10.9791 16.3424 
89 1 12.5113 16.8002 13.4467 
79 1 17.5566 16.4434 13.2019 
84 1 13.7454 10.0376 13.9436 
216 1 16.0457 13.9122 13.828 
76 1 15.2355 17.5684 12.0976 
101 1 17.6854 15.0522 15.5366 
207 1 17.0474 11.9065 11.4885 
77 1 16.5109 14.6338 11.1971 
11 1 16.9946 17.4547 16.1567 
90 1 13.4013 14.4818 14.4776 
223 1 14.7097 17.5563 17.3598 
33 1 14.5898 12.2141 15.2802 
105 1 12.8512 16.2107 16.2627 
205 1 16.6877 10.7565 13.6899 
224 1 14.5129 12.5413 12.3958 
217 1 14.295 15.2278 12.2282 
206 1 15.2543 14.6379 16.503 
222 1 17.0901 12.1266 15.7729 
55 1 15.2271 16.5429 14.557 
27 1 16.8478 17.1356 10.0901 
ITEM: TIMESTEP
100
ITEM: NUMBER OF ATOMS
250
ITEM: BOX BOUNDS pp pp pp
2.1246542862245494e+00 1.7875345713775143e+01
2.1246542862245494e+00 1.7875345713775143e+01
2.1246542862245494e+00 1.7875345713775143e+01
ITEM: ATOMS id type x y z 
39 1 5.67815 4.71584 2.88385 
29 1 3.76957 8.13394 6.07073 
106 1 6.07438 6.883 7.06567 
103 1 3.65714 2.81128 6.60497 
160 1 3.25821 8.88178 2.91821 
63 1 4.78769 5.30735 5.57991 
6 1 5.40956 2.78565 4.77028 
4 1 2.91178 4.36544 4.00184 
186 1 3.58338 6.6168 8.27836 
95 1 4.83096 8.97609 8.61833 
128 1 5.21831 7.39457 3.96481 
86 1 4.988 4.22168 8.25344 
142 1 5.94896 6.4646 9.72013 
242 1 2.49044 6.813 4.31326 
158 1 6.44334 9.39691 5.79485 
149 1 6.07804 9.55239 2.53562 
28 1 2.41705 5.16721 6.64439 
104 1 7.22262 3.97068 6.62627 
68 1 7.29505 9.04841 8.80967 
16 1 7.31155 5.87941 4.5869 
80 1 7.50786 3.74818 9.25002 
17 1 8.13623 3.12271 3.93922 
15 1 10.0869 4.20054 8.13084 
210 1 12.55 8.49718 7.99985 
43 1 11.0154 6.7856 6.70365 
235 1 8.43839 6.17877 8.0947 
153 1 8.54975 7.88443 6.04154 
117 1 9.69369 4.80663 5.52871 
74 1 11.0568 6.65227 9.55168 
161 1 9.78078 8.5956 8.26252 
58 1 11.4963 2.87837 5.6979 
14 1 8.06435 8.15729 3.24321 
10 1 10.9444 4.08614 3.33424 
44 1 10.3949 6.96313 3.9734 
162 1 10.8877 9.20242 2.67007 
229 1 10.7619 9.49387 5.65004 
123 1 8.78512 5.23378 2.48852 
26 1 12.5962 5.58659 4.77999 
59 1 12.5152 4.92962 7.69479 
42 1 14.0965 6.72506 6.64554 
81 1 15.7537 5.15333 4.88044 
60 1 15.0919 8.15347 9.17084 
154 1 13.8701 9.343 2.48877 
8 1 15.6486 4.88331 7.92461 
56 1 16.7053 7.28343 6.67358 
61 1 17.7404 9.02236 8.18394 
12 1 17.531 9.53759 5.06781 
46 1 14.1152 6.58463 2.76165 
41 1 12.9453 8.52675 4.86682 
19 1 13.9048 3.97941 3.15542 
37 1 17.0027 6.44125 9.59404 
18 1 16.5953 5.69201 2.36942 
246 1 14.0397 3.60677 6.09611 
9 1 17.6362 3.45189 8.67247 
54 1 13.923 5.83228 9.75184 
172 1 16.796 3.14594 2.7636 
47 1 15.5891 7.98208 4.47407 
70 1 14.4502 3.13578 9.4699 
34 1 16.8084 3.03908 5.92812 
118 1 15.061 9.5269 6.93349 
88 1 5.90406 7.00489 14.3402 
115 1 5.08479 4.57806 16.0332 
72 1 4.67661 6.14427 12.2314 
96 1 5.99417 8.40881 11.58 
196 1 2.52586 2.78278 11.7755 
112 1 6.468 6.70756 17.3224 
5 1 3.74297 4.25832 13.6657 
1 1 3.4413 6.46629 14.9624 
114 1 3.37494 8.48569 13.4894 
20 1 4.63243 8.82179 16.1385 
24 1 2.35542 4.18891 16.3871 
66 1 5.49527 3.8473 11.0844 
38 1 6.3011 3.8961 13.7975 
121 1 3.4644 7.89644 10.5522 
2 1 3.14848 4.87727 10.4676 
226 1 3.39707 6.49074 17.5075 
250 1 3.99615 2.80469 17.832 
67 1 7.36296 5.8325 12.0976 
201 1 2.09625 8.98411 15.9694 
87 1 5.91281 9.89816 13.6381 
22 1 7.36981 8.82539 15.9546 
82 1 8.29849 9.8832 11.8379 
122 1 8.41189 7.56369 10.4959 
244 1 7.50173 3.73467 16.632 
52 1 9.53262 4.99567 10.7563 
78 1 7.94635 5.90578 15.2797 
98 1 8.19954 3.13706 11.9087 
13 1 8.57215 2.88359 14.5687 
214 1 10.3641 7.53519 12.0338 
23 1 9.44033 7.35159 16.9539 
113 1 11.1233 3.23157 12.7264 
228 1 10.6658 7.15337 14.6151 
227 1 8.33253 8.1239 13.6675 
91 1 10.1924 4.5597 16.0458 
49 1 11.7654 6.08963 17.5195 
92 1 9.54037 5.19453 13.4138 
204 1 10.919 9.80736 13.3805 
124 1 12.1504 5.79376 12.0605 
164 1 10.6743 9.77297 10.3643 
48 1 12.3032 8.26294 16.154 
94 1 12.4609 5.21731 14.7343 
108 1 12.3611 3.35886 16.8502 
239 1 10.0125 9.7416 15.7536 
116 1 9.51642 2.25725 17.467 
73 1 11.8991 3.87291 10.0312 
111 1 16.6602 3.51865 14.0067 
119 1 14.4603 7.00257 16.1092 
231 1 15.1814 9.80119 16.1424 
125 1 13.0466 7.75028 13.4325 
102 1 16.0191 8.15545 13.8489 
193 1 12.7413 8.4343 10.8244 
110 1 15.0918 4.25382 16.338 
75 1 14.7284 9.81667 11.6347 
83 1 13.6309 3.7187 12.0907 
109 1 16.0486 4.39755 11.159 
65 1 15.0799 7.04529 11.6049 
120 1 16.8616 6.30548 15.5194 
100 1 14.8798 5.52255 13.7138 
51 1 17.6563 6.13233 12.5468 
190 1 17.0828 8.88408 11.2443 
85 1 13.712 2.94022 14.6881 
25 1 16.5684 8.16455 17.9112 
134 1 6.52501 12.1118 2.94794 
168 1 4.89648 16.1894 3.73879 
182 1 4.1272 13.0909 8.09601 
166 1 4.69087 12.9978 5.52561 
139 1 4.41944 15.8128 6.44588 
167 1 6.56924 14.4552 7.06879 
157 1 3.72034 10.7035 6.72025 
151 1 2.72826 14.7841 4.3561 
62 1 4.67658 10.5293 4.31434 
71 1 6.09694 11.3871 7.80528 
183 1 6.41256 14.4391 4.33837 
175 1 7.17664 16.763 5.4469 
156 1 4.35649 13.3705 2.75585 
211 1 5.36431 15.4048 9.25124 
40 1 6.8063 13.3732 9.54395 
155 1 2.82701 15.272 8.96835 
126 1 2.45446 11.914 4.35684 
249 1 6.52158 17.5255 2.27718 
57 1 6.26938 17.5095 7.73227 
177 1 3.0661 10.8585 9.55395 
191 1 7.40249 12.2795 5.59107 
138 1 2.5667 17.3289 4.26614 
150 1 4.02387 17.7708 9.59313 
45 1 1.96322 13.9052 6.62191 
31 1 12.1009 17.6657 8.01642 
143 1 8.15462 15.7424 2.91334 
188 1 8.63421 10.5379 6.92912 
236 1 9.29403 13.264 7.78575 
192 1 8.43198 15.7681 8.38956 
198 1 8.93168 14.7598 5.58508 
187 1 10.8961 10.9127 7.92536 
179 1 10.4614 12.3823 5.42637 
53 1 10.1703 16.7768 4.28093 
170 1 8.79613 13.2275 3.42578 
135 1 8.71502 10.4817 4.16778 
148 1 11.3369 14.4952 3.86008 
147 1 11.0688 15.3825 6.64546 
145 1 8.57996 11.3777 9.61126 
107 1 12.2772 17.3743 3.06289 
199 1 12.1691 13.1357 7.62771 
220 1 11.3836 15.1701 9.38621 
136 1 12.5113 11.4094 3.63544 
169 1 9.27108 17.7962 6.86353 
178 1 10.5452 12.0329 2.30569 
203 1 10.9967 12.697 9.90668 
197 1 9.82903 17.6768 9.97646 
174 1 15.119 17.4344 7.49473 
64 1 15.0525 10.8476 4.70017 
7 1 15.1045 17.7183 4.29658 
99 1 12.9153 10.9876 6.27411 
176 1 17.2634 13.0328 9.12668 
195 1 13.3201 10.7505 9.09928 
180 1 15.013 12.7381 7.17626 
137 1 16.6363 15.9381 2.68459 
35 1 17.7624 16.6276 6.99173 
140 1 13.4151 13.4397 5.16569 
21 1 16.0409 13.2422 4.34829 
230 1 15.7335 15.5458 5.486 
238 1 13.9802 15.1031 3.11815 
130 1 16.7968 10.6369 2.54868 
181 1 17.151 11.5239 6.90327 
173 1 13.5918 15.147 7.48639 
225 1 15.9967 15.089 8.44389 
163 1 13.1228 16.497 5.42107 
171 1 14.2221 16.1809 9.8488 
131 1 14.7258 12.2979 2.16136 
185 1 15.7991 10.9617 9.34136 
132 1 17.558 13.5131 2.02455 
69 1 14.0023 13.4568 9.87545 
127 1 5.22786 12.4469 13.2607 
240 1 3.67306 15.8879 17.2947 
209 1 6.14469 14.7422 11.918 
241 1 4.44249 15.3358 14.2823 
133 1 6.0202 11.7028 16.2122 
232 1 4.02473 13.3541 15.834 
30 1 6.67385 13.9573 14.7044 
159 1 3.91852 13.2359 10.7477 
200 1 7.1712 16.9585 10.5295 
233 1 2.64857 13.3691 13.3046 
50 1 6.12671 14.7156 17.1261 
97 1 3.56515 10.9668 14.7965 
165 1 3.5862 15.6817 11.458 
243 1 5.82027 17.2493 15.5012 
152 1 3.56646 11.1468 17.5206 
141 1 4.93462 17.5503 12.5427 
208 1 5.74222 10.9506 10.5842 
202 1 3.61722 10.6106 12.0552 
218 1 7.26474 16.6276 13.472 
212 1 7.38921 12.4123 11.9777 
234 1 3.45366 17.896 15.0225 
194 1 12.4546 11.3501 11.4243 
144 1 8.31477 16.2098 15.8783 
184 1 10.5076 15.2357 17.4471 
213 1 8.12152 11.2754 14.3645 
3 1 8.99415 14.485 10.6761 
93 1 10.2596 12.2606 15.3902 
219 1 10.7662 14.744 14.8506 
247 1 8.80874 14.2452 13.4853 
221 1 9.8096 16.5744 12.6482 
248 1 11.6918 14.3247 12.0606 
237 1 9.92715 12.0935 12.2765 
189 1 12.2103 12.3771 13.9154 
146 1 8.44696 13.5169 16.5302 
245 1 8.43058 10.7343 17.3639 
36 1 12.2964 17.2279 10.9624 
32 1 10.8504 17.5647 15.2274 
129 1 12.5003 13.4647 16.9394 
215 1 12.5014 10.8143 16.3946 
89 1 12.6373 16.7182 13.4531 
79 1 17.582 16.4501 13.2933 
84 1 13.6567 10.1351 14.0559 
216 1 16.0072 13.8871 13.761 
76 1 15.3287 17.5535 12.0862 
101 1 17.6559 15.0999 15.517 
207 1 17.0044 11.9477 11.5587 
77 1 16.6517 14.6465 11.1173 
11 1 17.0637 17.5065 16.2843 
90 1 13.4732 14.4754 14.4707 
223 1 14.7224 17.4796 17.264 
33 1 14.5964 12.211 15.223 
105 1 12.6814 16.2433 16.412 
205 1 16.7422 10.625 13.6654 
224 1 14.5013 12.4435 12.3333 
217 1 14.2768 15.1835 12.0995 
206 1 15.2203 14.7113 16.5178 
222 1 17.1367 12.1383 15.824 
55 1 15.2697 16.5315 14.5955 
27 1 16.9057 17.1341 9.96033 
ITEM: TIMESTEP
150
ITEM: NUMBER OF ATOMS
250
ITEM: BOX BOUNDS pp pp pp
2.1246542862245494e+00 1.7875345713775143e+01
2.1246542862245494e+00 1.7875345713775143e+01
2.1246542862245494e+00 1.7875345713775143e+01
ITEM: ATOMS id type x y z 
39 1 5.65408 4.62671 2.97193 
29 1 3.8302 8.11953 6.03639 
106 1 6.15069 6.86555 7.03868 
103 1 3.66131 2.76141 6.64494 
160 1 3.30216 8.96398 3.02395 
63 1 4.77183 5.31331 5.6457 
6 1 5.3419 2.82775 4.81705 
4 1 2.97413 4.38631 3.91653 
186 1 3.60726 6.71638 8.22406 
95 1 4.84768 9.03347 8.60044 
128 1 5.33774 7.49994 3.98039 
86 1 4.8619 4.34944 8.28444 
142 1 5.84851 6.28147 9.71917 
242 1 2.26888 6.91419 4.31789 
158 1 6.48362 9.31106 5.80103 
149 1 6.09825 9.53572 2.49386 
28 1 2.42171 5.25233 6.66652 
104 1 7.3503 4.05345 6.56275 
68 1 7.275 8.97845 8.79711 
16 1 7.36336 5.94134 4.58094 
80 1 7.61533 3.71926 9.20291 
17 1 8.12845 3.02296 4.00173 
15 1 10.0486 4.15117 8.01874 
210 1 12.5455 8.56533 8.00908 
43 1 11.0117 6.8654 6.70218 
235 1 8.36604 6.21815 8.11061 
153 1 8.60356 7.76618 5.92368 
117 1 9.62555 4.9096 5.56538 
74 1 11.0391 6.69272 9.47463 
161 1 9.75152 8.69255 8.25701 
58 1 11.4901 2.86369 5.6577 
14 1 8.09 8.1869 3.261 
10 1 10.9249 3.9318 3.33365 
44 1 10.2968 7.02047 4.04695 
162 1 10.9816 9.25964 2.62178 
229 1 10.7291 9.49533 5.53749 
123 1 8.83225 5.32976 2.52863 
26 1 12.5852 5.58485 4.77438 
59 1 12.5264 4.86809 7.62208 
42 1 14.0449 6.79871 6.68359 
81 1 15.7951 5.16281 4.88383 
60 1 15.0393 8.22429 9.12594 
154 1 13.9363 9.2611 2.54256 
8 1 15.5694 4.80633 7.8553 
56 1 16.7138 7.25078 6.80555 
61 1 17.7402 9.01157 8.27926 
12 1 17.541 9.45038 5.10094 
46 1 14.0884 6.70568 2.82211 
41 1 12.918 8.51368 4.85789 
19 1 13.9481 4.12811 3.04405 
37 1 17.0742 6.38165 9.55606 
18 1 16.5083 5.6921 2.50135 
246 1 13.9556 3.58956 6.05559 
9 1 17.6646 3.44056 8.66331 
54 1 13.8028 5.9989 9.64071 
172 1 16.636 3.17733 2.78375 
47 1 15.4589 7.99784 4.46172 
70 1 14.3934 3.10007 9.36996 
34 1 16.8505 2.96305 5.77455 
118 1 15.1634 9.57366 6.88317 
88 1 5.89299 7.10327 14.2959 
115 1 5.03162 4.50093 15.9717 
72 1 4.64932 6.16891 12.2774 
96 1 5.83217 8.42762 11.5671 
196 1 2.54553 2.83722 11.8567 
112 1 6.43066 6.72412 17.2955 
5 1 3.73961 4.32262 13.5639 
1 1 3.50527 6.51118 14.9906 
114 1 3.28473 8.51968 13.4412 
20 1 4.7355 8.83589 16.1044 
24 1 2.38572 4.26912 16.3884 
66 1 5.60963 3.72891 11.0236 
38 1 6.43571 4.02622 13.8867 
121 1 3.53271 7.91638 10.6275 
2 1 3.34005 4.84724 10.4008 
226 1 3.45787 6.49281 17.577 
250 1 3.96817 2.65594 17.7879 
67 1 7.28862 5.83051 12.1531 
201 1 2.11464 9.02851 15.8617 
87 1 5.9263 10.0635 13.6449 
22 1 7.28266 8.89108 15.9515 
82 1 8.35021 9.88969 11.7854 
122 1 8.48668 7.59817 10.5392 
244 1 7.30495 3.72304 16.8233 
52 1 9.62122 4.91091 10.7069 
78 1 7.90368 5.80452 15.2794 
98 1 8.23434 3.10732 12.0163 
13 1 8.65924 2.80502 14.5557 
214 1 10.3588 7.51641 12.137 
23 1 9.37894 7.48905 16.7818 
113 1 11.0528 3.14372 12.7427 
228 1 10.7087 7.059 14.644 
227 1 8.3991 8.16809 13.6582 
91 1 10.0761 4.61594 16.0777 
49 1 11.7956 6.10855 17.5087 
92 1 9.58335 5.14109 13.4384 
204 1 10.988 9.78721 13.4875 
124 1 12.1872 5.68186 12.0968 
164 1 10.705 9.719 10.4354 
48 1 12.3531 8.26531 16.1948 
94 1 12.4389 5.18317 14.7969 
108 1 12.2976 3.34397 16.8267 
239 1 10.0238 9.59508 15.8081 
116 1 9.63232 2.24688 17.5808 
73 1 11.8985 3.83922 10.0454 
111 1 16.6676 3.4979 13.8866 
119 1 14.4348 6.98902 16.0306 
231 1 15.2004 9.71923 16.039 
125 1 13.128 7.79399 13.4995 
102 1 15.9868 8.26233 13.803 
193 1 12.7655 8.30093 10.889 
110 1 15.1114 4.36928 16.2949 
75 1 14.7013 9.90567 11.6345 
83 1 13.7896 3.75143 12.0676 
109 1 16.1463 4.27527 10.9507 
65 1 15.0183 6.92707 11.7387 
120 1 16.7521 6.30913 15.5233 
100 1 14.7614 5.43947 13.6854 
51 1 17.5757 6.08385 12.6103 
190 1 17.0534 8.98934 11.2132 
85 1 13.7289 2.83954 14.5305 
25 1 16.5429 8.108 17.8557 
134 1 6.43249 12.0554 2.95099 
168 1 4.90804 16.2257 3.73242 
182 1 4.05273 13.1226 8.02061 
166 1 4.63648 12.9456 5.48132 
139 1 4.39797 15.7762 6.26769 
167 1 6.65382 14.3061 7.17625 
157 1 3.90341 10.6109 6.74706 
151 1 2.66878 14.7288 4.31698 
62 1 4.73825 10.5678 4.40795 
71 1 6.04531 11.4218 7.78022 
183 1 6.44165 14.4009 4.3805 
175 1 7.24184 16.7449 5.3696 
156 1 4.37956 13.3511 2.82972 
211 1 5.36868 15.5384 9.18533 
40 1 6.75315 13.3212 9.55891 
155 1 2.86791 15.2926 8.93383 
126 1 2.42414 11.8907 4.33006 
249 1 6.50392 17.502 2.30637 
57 1 6.17711 17.4972 7.66794 
177 1 3.10512 10.899 9.55215 
191 1 7.41142 12.3509 5.56711 
138 1 2.59455 17.3087 4.20257 
150 1 4.03795 17.7298 9.57297 
45 1 2.02732 13.9772 6.56052 
31 1 12.1823 17.68 8.03898 
143 1 8.21462 15.7676 2.93594 
188 1 8.52042 10.616 6.95438 
236 1 9.2904 13.2223 7.95688 
192 1 8.42822 15.7933 8.31003 
198 1 8.80225 14.7467 5.66369 
187 1 10.9175 10.9588 8.01246 
179 1 10.5583 12.4291 5.40045 
53 1 10.104 16.8492 4.37683 
170 1 8.7169 13.3016 3.44505 
135 1 8.65281 10.496 4.18147 
148 1 11.3565 14.3925 3.90107 
147 1 10.9981 15.3648 6.71027 
145 1 8.55887 11.3083 9.59357 
107 1 12.3496 17.3314 3.0733 
199 1 12.2375 13.146 7.68415 
220 1 11.3346 15.2041 9.25931 
136 1 12.5735 11.4011 3.69822 
169 1 9.12407 17.772 6.85691 
178 1 10.6086 12.0738 2.2367 
203 1 10.9795 12.6174 9.91898 
197 1 9.86674 17.5877 9.93253 
174 1 15.2091 17.5428 7.42744 
64 1 15.0863 10.938 4.6972 
7 1 15.1323 17.5907 4.31709 
99 1 12.8425 10.95 6.26038 
176 1 17.2704 12.9041 9.01067 
195 1 13.3334 10.7809 9.03926 
180 1 14.995 12.7116 7.15327 
137 1 16.6285 15.8913 2.69684 
35 1 17.6914 16.7003 7.11079 
140 1 13.3242 13.6331 5.23958 
21 1 15.9274 13.3064 4.31048 
230 1 15.8814 15.5226 5.62486 
238 1 14.0788 15.1752 3.1498 
130 1 16.6119 10.6247 2.53976 
181 1 17.2294 11.4044 6.76791 
173 1 13.705 15.2308 7.46472 
225 1 16.0295 15.0432 8.35126 
163 1 13.0146 16.4823 5.399 
171 1 14.2645 16.3175 9.7644 
131 1 14.6033 12.2168 2.11589 
185 1 15.8385 10.9014 9.40302 
132 1 17.547 13.4515 2.22143 
69 1 13.96 13.4769 9.86318 
127 1 5.11843 12.4916 13.2852 
240 1 3.66427 15.9438 17.2462 
209 1 6.15935 14.8326 11.9181 
241 1 4.50481 15.3487 14.2835 
133 1 5.98925 11.6004 16.0716 
232 1 3.94475 13.3248 15.8697 
30 1 6.59038 14.0944 14.6872 
159 1 3.96197 13.2397 10.7585 
200 1 7.164 16.9144 10.5236 
233 1 2.73998 13.299 13.2862 
50 1 6.10506 14.767 17.1678 
97 1 3.57586 10.8849 14.768 
165 1 3.50369 15.7014 11.4667 
243 1 5.9153 17.3039 15.6281 
152 1 3.57273 11.1282 17.4894 
141 1 4.95261 17.5643 12.6936 
208 1 5.81309 10.8273 10.7082 
202 1 3.49775 10.5778 12.1031 
218 1 7.10864 16.6254 13.3325 
212 1 7.37123 12.4522 12.0905 