LAMMPS (3 Mar 2020)
# amorphous phase of Mo

# Initialize Simulation ---------------------
clear
units           metal
dimension       3
boundary        p p p
atom_style      atomic
atom_modify     map array

# Create Atoms ---------------------
lattice         bcc 4.00
Lattice spacing in x,y,z = 4 4 4
region          box block 0 5 0 5 0 5 units lattice
create_box      1 box
Created orthogonal box = (0 0 0) to (20 20 20)
  1 by 2 by 2 MPI processor grid
create_atoms    1 box
Created 250 atoms
  create_atoms CPU = 0.000214885 secs

# Define Interatomic Potential ---------------------
pair_style      eam/alloy
pair_coeff      * * Mo_Zhou04.eam.alloy Mo
Reading potential file Mo_Zhou04.eam.alloy with DATE: 2018-03-30
neighbor        2.0 bin
neigh_modify    delay 10 check yes

# Setting THERMO
reset_timestep  0
thermo          10
thermo_style    custom step lx ly lz press pe temp

# Run Minimization
variable        targetPressure equal 0.0

fix             1 all                                                       box/relax iso ${targetPressure} vmax 0.001
fix             1 all                                                       box/relax iso 0 vmax 0.001
min_style       cg
minimize        1e-25 1e-25 5000 10000
WARNING: Using 'neigh_modify every 1 delay 0 check yes' setting during minimization (src/min.cpp:190)
Neighbor list info ...
  update every 1 steps, delay 0 steps, check yes
  max neighbors/atom: 2000, page size: 100000
  master list distance cutoff = 8.10022
  ghost atom cutoff = 8.10022
  binsize = 4.05011, bins = 5 5 5
  1 neighbor lists, perpetual/occasional/extra = 1 0 0
  (1) pair eam/alloy, perpetual
      attributes: half, newton on
      pair build: half/bin/atomonly/newton
      stencil: half/bin/3d/newton
      bin: standard
Per MPI rank memory allocation (min/avg/max) = 4.476 | 4.476 | 4.476 Mbytes
Step Lx Ly Lz Press PotEng Temp 
       0           20           20           20   -530575.56   -490.30867            0 
      10         19.8         19.8         19.8   -568622.48   -571.95007            0 
      20         19.6         19.6         19.6    -594526.8   -656.61876            0 
      30         19.4         19.4         19.4    -608337.7   -742.39715            0 
      40         19.2         19.2         19.2   -611621.25   -827.59464            0 
      50           19           19           19   -606895.03   -910.90731            0 
      60         18.8         18.8         18.8   -596947.16   -991.47377            0 
      70         18.6         18.6         18.6   -584244.64   -1068.8382            0 
      80         18.4         18.4         18.4   -570519.91   -1142.8496            0 
      90         18.2         18.2         18.2   -556526.63   -1213.5292            0 
     100           18           18           18    -541935.7   -1280.9279            0 
     110         17.8         17.8         17.8   -525395.39    -1344.996            0 
     120         17.6         17.6         17.6   -504832.49   -1405.4871            0 
     130         17.4         17.4         17.4   -478035.68    -1461.924            0 
     140         17.2         17.2         17.2   -443392.98   -1513.6471            0 
     150           17           17           17   -400480.76   -1559.9343            0 
     160         16.8         16.8         16.8   -350222.74   -1600.1503            0 
     170         16.6         16.6         16.6   -294607.12   -1633.8718            0 
     180         16.4         16.4         16.4   -236254.16   -1660.9572            0 
     190         16.2         16.2         16.2   -178019.41    -1681.571            0 
     200           16           16           16   -110044.32   -1695.7053            0 
     210         15.8         15.8         15.8   -24120.944   -1702.2212            0 
     220    15.750691    15.750691    15.750691 -6.3136035e-09   -1702.5009            0 
     225    15.750691    15.750691    15.750691 9.9760034e-10   -1702.5009            0 
Loop time of 0.0502108 on 4 procs for 225 steps with 250 atoms

94.5% CPU use with 4 MPI tasks x no OpenMP threads

Minimization stats:
  Stopping criterion = energy tolerance
  Energy initial, next-to-last, final = 
        -490.308672124     -1702.50086734     -1702.50086734
  Force two-norm initial, final = 7947.82 9.38431e-12
  Force max component initial, final = 7947.82 9.26823e-12
  Final line search alpha, max atom move = 1 9.26823e-12
  Iterations, force evaluations = 225 238

MPI task timing breakdown:
Section |  min time  |  avg time  |  max time  |%varavg| %total
---------------------------------------------------------------
Pair    | 0.02485    | 0.030176   | 0.033906   |   2.0 | 60.10
Neigh   | 0.00052384 | 0.00077773 | 0.0010449  |   0.0 |  1.55
Comm    | 0.0075066  | 0.011348   | 0.016761   |   3.3 | 22.60
Output  | 0.00028272 | 0.00031861 | 0.00040886 |   0.0 |  0.63
Modify  | 0          | 0          | 0          |   0.0 |  0.00
Other   |            | 0.00759    |            |       | 15.12

Nlocal:    62.5 ave 90 max 40 min
Histogram: 1 0 0 0 2 0 0 0 0 1
Nghost:    1281.5 ave 1304 max 1254 min
Histogram: 1 0 0 0 0 0 2 0 0 1
Neighs:    4250 ave 5801 max 2933 min
Histogram: 1 0 0 1 1 0 0 0 0 1

Total # of neighbors = 17000
Ave neighs/atom = 68
Neighbor list builds = 7
Dangerous builds = 0
unfix           1

# Setting DUMP
reset_timestep  0
variable        dumpInterval equal 25
dump            1 all custom ${dumpInterval} dump.out id type x y z
dump            1 all custom 25 dump.out id type x y z

# Run simulation
## melt Mo-bcc
variable        initTemp        equal 300
variable        finalTemp       equal 6000
variable        doubleInitTemp  equal 2*${initTemp}
variable        doubleInitTemp  equal 2*300

velocity        all create ${doubleInitTemp} 12345 mom yes rot yes
velocity        all create 600 12345 mom yes rot yes

fix             2 all                                                   nvt                                                     temp ${initTemp} ${finalTemp} $(100.0*dt)
fix             2 all                                                   nvt                                                     temp 300 ${finalTemp} $(100.0*dt)
fix             2 all                                                   nvt                                                     temp 300 6000 $(100.0*dt)
fix             2 all                                                   nvt                                                     temp 300 6000 0.10000000000000000555

run             40000
Per MPI rank memory allocation (min/avg/max) = 4.628 | 4.628 | 4.628 Mbytes
Step Lx Ly Lz Press PotEng Temp 
       0    15.750691    15.750691    15.750691    5278.8031   -1702.5009          600 
      10    15.750691    15.750691    15.750691    6757.0121   -1699.7338    508.84022 
      20    15.750691    15.750691    15.750691    9952.3258   -1693.4175     303.7102 
      30    15.750691    15.750691    15.750691    12385.707   -1687.8474    126.37526 
      40    15.750691    15.750691    15.750691    12396.581   -1686.2784     76.92281 
      50    15.750691    15.750691    15.750691    10345.462   -1688.7401    154.18834 
      60    15.750691    15.750691    15.750691    8130.6036   -1692.6124    277.67979 
      70    15.750691    15.750691    15.750691    7452.1054    -1695.079    358.87651 
      80    15.750691    15.750691    15.750691    8475.4394   -1695.1677    364.99139 
      90    15.750691    15.750691    15.750691    10027.628   -1693.9508    328.82737 
     100    15.750691    15.750691    15.750691    10821.477   -1693.1205    303.95726 
     110    15.750691    15.750691    15.750691    10481.906   -1693.3331    311.46215 
     120    15.750691    15.750691    15.750691    9634.0795   -1693.8306     327.8181 
     130    15.750691    15.750691    15.750691     9219.721   -1693.4901    317.93245 
     140    15.750691    15.750691    15.750691    9685.0897   -1692.0808    274.82876 
     150    15.750691    15.750691    15.750691    10596.691   -1690.5752    229.29513 
     160    15.750691    15.750691    15.750691    11067.813    -1690.326    223.81069 
     170    15.750691    15.750691    15.750691    10611.235   -1691.8063    273.56698 
     180    15.750691    15.750691    15.750691    9640.8937   -1694.0209    347.67619 
     190    15.750691    15.750691    15.750691    9116.7272   -1695.2647    391.64971 
     200    15.750691    15.750691    15.750691     9601.089   -1694.6057    374.81085 
     210    15.750691    15.750691    15.750691    10669.254   -1692.6599    316.43578 
     220    15.750691    15.750691    15.750691    11356.511   -1690.9534    265.19064 
     230    15.750691    15.750691    15.750691      11082.5   -1690.5919    256.32646 
     240    15.750691    15.750691    15.750691    10148.834   -1691.4796    287.32539 
     250    15.750691    15.750691    15.750691    9415.6692   -1692.6425    327.82484 
     260    15.750691    15.750691    15.750691    9441.0946    -1693.175    348.90049 
     270    15.750691    15.750691    15.750691    10017.848    -1692.911    344.65177 
     280    15.750691    15.750691    15.750691      10584.2   -1692.3699    331.15505 
     290    15.750691    15.750691    15.750691    10842.906   -1692.1485    327.29151 
     300    15.750691    15.750691    15.750691    10900.354   -1692.2907    334.67371 
     310    15.750691    15.750691    15.750691    11004.296   -1692.2692    336.91191 
     320    15.750691    15.750691    15.750691    11242.477    -1691.651    320.49204 
     330    15.750691    15.750691    15.750691    11468.491   -1690.6967    293.68708 
     340    15.750691    15.750691    15.750691    11467.299   -1690.1768    280.79885 
     350    15.750691    15.750691    15.750691    11174.641   -1690.5989    297.94482 
     360    15.750691    15.750691    15.750691    10766.467   -1691.7179    337.58559 
     370    15.750691    15.750691    15.750691    10511.109   -1692.7989    376.30072 
     380    15.750691    15.750691    15.750691    10499.069   -1693.2387    394.38113 
     390    15.750691    15.750691    15.750691    10624.782   -1692.9129    387.40277 
     400    15.750691    15.750691    15.750691    10773.295   -1692.0718     363.3465 
     410    15.750691    15.750691    15.750691    10922.635   -1691.0414     332.9643 
     420    15.750691    15.750691    15.750691    11175.398   -1690.0535    304.08149 
     430    15.750691    15.750691    15.750691    11631.031   -1689.3256    283.89284 
     440    15.750691    15.750691    15.750691    12164.012   -1689.1615     282.1305 
     450    15.750691    15.750691    15.750691    12436.305    -1689.828     307.2822 
     460    15.750691    15.750691    15.750691     12175.23   -1691.2558    357.14371 
     470    15.750691    15.750691    15.750691    11452.549   -1692.8393    412.14175 
     480    15.750691    15.750691    15.750691    10733.215   -1693.6786    442.91733 
     490    15.750691    15.750691    15.750691    10518.527   -1693.2182    431.26266 
     500    15.750691    15.750691    15.750691    10945.803   -1691.6781    384.40827 
     510    15.750691    15.750691    15.750691    11736.269   -1689.9111    330.07079 
     520    15.750691    15.750691    15.750691    12421.272   -1688.8597    298.51277 
     530    15.750691    15.750691    15.750691    12653.809   -1688.9935    304.79687 
     540    15.750691    15.750691    15.750691    12412.341    -1690.087    342.09168 
     550    15.750691    15.750691    15.750691    11976.713   -1691.4142    387.53922 
     560    15.750691    15.750691    15.750691    11696.271   -1692.1899    415.86924 
     570    15.750691    15.750691    15.750691    11689.239   -1692.0467    414.82794 
     580    15.750691    15.750691    15.750691    11812.007   -1691.2241     391.7324 
     590    15.750691    15.750691    15.750691    11915.004   -1690.2716    364.15247 
     600    15.750691    15.750691    15.750691    12069.322   -1689.5092    342.60789 
     610    15.750691    15.750691    15.750691    12500.035   -1688.8524    324.87689 
     620    15.750691    15.750691    15.750691     13198.62   -1688.2822    310.61635 
     630    15.750691    15.750691    15.750691    13713.719    -1688.244    313.84498 
     640    15.750691    15.750691    15.750691    13533.663   -1689.2391    350.29743 
     650    15.750691    15.750691    15.750691    12662.188   -1691.0623    413.35243 
     660    15.750691    15.750691    15.750691    11750.923   -1692.6584    468.95648 
     670    15.750691    15.750691    15.750691     11575.65   -1692.8853    479.97018 
     680    15.750691    15.750691    15.750691    12275.059   -1691.5145    438.98072 
     690    15.750691    15.750691    15.750691    13248.873    -1689.486    376.43167 
     700    15.750691    15.750691    15.750691     13738.46   -1688.1325    335.07555 
     710    15.750691    15.750691    15.750691    13467.427   -1688.1012    335.66325 
     720    15.750691    15.750691    15.750691    12819.134   -1688.9895    365.83321 
     730    15.750691    15.750691    15.750691    12415.205   -1689.9032    397.51945 
     740    15.750691    15.750691    15.750691    12529.868   -1690.2398    411.41474 
     750    15.750691    15.750691    15.750691    12911.849   -1690.0602    409.01536 
     760    15.750691    15.750691    15.750691    13117.606   -1689.8751    406.18461 
     770    15.750691    15.750691    15.750691      12951.5    -1690.034    413.90565 
     780    15.750691    15.750691    15.750691    12686.673   -1690.2937    424.58977 
     790    15.750691    15.750691    15.750691    12824.701   -1690.0528    419.39023 
     800    15.750691    15.750691    15.750691     13494.01   -1689.0786    391.15849 
     810    15.750691    15.750691    15.750691    14212.507   -1687.9709    358.97509 
     820    15.750691    15.750691    15.750691    14357.931   -1687.6899    353.19179 
     830    15.750691    15.750691    15.750691    13778.219   -1688.5518    383.96036 
     840    15.750691    15.750691    15.750691    12946.987   -1689.8711    429.81664 
     850    15.750691    15.750691    15.750691    12589.037   -1690.5887    456.97397 
     860    15.750691    15.750691    15.750691    13002.306   -1690.1746    448.07708 
     870    15.750691    15.750691    15.750691    13826.146   -1689.0039    414.75144 
     880    15.750691    15.750691    15.750691    14449.339   -1687.9567    384.97744 
     890    15.750691    15.750691    15.750691    14532.916   -1687.6805    379.49059 
     900    15.750691    15.750691    15.750691    14255.302   -1688.1681    398.33188 
     910    15.750691    15.750691    15.750691    14040.802    -1688.907    425.42092 
     920    15.750691    15.750691    15.750691    14096.759   -1689.3516    443.29105 
     930    15.750691    15.750691    15.750691     14275.17   -1689.3325    446.22793 
     940    15.750691    15.750691    15.750691     14229.42   -1689.1359    443.01638 
     950    15.750691    15.750691    15.750691    13759.692   -1689.1189     444.8837 
     960    15.750691    15.750691    15.750691    13115.492   -1689.2007    449.39132 
     970    15.750691    15.750691    15.750691    12865.091   -1688.9296    442.52285 
     980    15.750691    15.750691    15.750691    13357.494   -1688.0924    417.83453 
     990    15.750691    15.750691    15.750691    14293.197   -1687.1009    388.55654 
    1000    15.750691    15.750691    15.750691    14919.402   -1686.7769    380.66726 
    1010    15.750691    15.750691    15.750691    14680.881   -1687.6964     412.2791 
    1020    15.750691    15.750691    15.750691    13744.973   -1689.5048    472.12418 
    1030    15.750691    15.750691    15.750691    12931.088   -1690.9154    519.16595 
    1040    15.750691    15.750691    15.750691    12991.949   -1690.7591    515.89876 
    1050    15.750691    15.750691    15.750691    13909.273   -1689.0765    463.69588 
    1060    15.750691    15.750691    15.750691    14948.532   -1687.0167    399.51964 
    1070    15.750691    15.750691    15.750691    15308.111   -1685.8783    364.79073 
    1080    15.750691    15.750691    15.750691    14837.316    -1686.223    377.38736 
    1090    15.750691    15.750691    15.750691     14158.86   -1687.4878    419.84894 
    1100    15.750691    15.750691    15.750691    13979.644   -1688.4755    454.47436 
    1110    15.750691    15.750691    15.750691     14416.65   -1688.4847    458.69321 
    1120    15.750691    15.750691    15.750691    15069.352     -1687.88     443.4911 
    1130    15.750691    15.750691    15.750691    15423.816   -1687.5466    436.57967 
    1140    15.750691    15.750691    15.750691     15254.08   -1687.9421    452.41118 
    1150    15.750691    15.750691    15.750691    14791.137    -1688.681    478.86692 
    1160    15.750691    15.750691    15.750691    14466.365   -1688.9056    488.83067 
    1170    15.750691    15.750691    15.750691    14609.252   -1688.0783    465.36208 
    1180    15.750691    15.750691    15.750691    15211.248   -1686.5933    421.13242 
    1190    15.750691    15.750691    15.750691    15823.636   -1685.6436    393.91531 
    1200    15.750691    15.750691    15.750691    15788.067   -1686.2847    416.97168 
    1210    15.750691    15.750691    15.750691    14920.528   -1688.3497    485.06935 
    1220    15.750691    15.750691    15.750691    13913.094   -1690.3574    551.14252 
    1230    15.750691    15.750691    15.750691    13709.584   -1690.7206    564.31443 
    1240    15.750691    15.750691    15.750691    14483.494    -1689.117    514.34776 
    1250    15.750691    15.750691    15.750691    15534.584   -1686.7878    441.21423 
    1260    15.750691    15.750691    15.750691    15977.501   -1685.3969    397.95777 
    1270    15.750691    15.750691    15.750691    15502.509   -1685.5335    403.37222 
    1280    15.750691    15.750691    15.750691    14650.368   -1686.4592    434.49382 
    1290    15.750691    15.750691    15.750691     14295.92   -1687.1061    457.76354 
    1300    15.750691    15.750691    15.750691    14782.764   -1687.0746     460.2794 
    1310    15.750691    15.750691    15.750691    15620.444   -1686.8162    455.88664 
    1320    15.750691    15.750691    15.750691    16047.108   -1687.0394     466.6609 
    1330    15.750691    15.750691    15.750691    15785.434   -1687.9084     497.6549 
    1340    15.750691    15.750691    15.750691    15235.593    -1688.762    527.86197 
    1350    15.750691    15.750691    15.750691     15069.87   -1688.6256    526.37901 
    1360    15.750691    15.750691    15.750691    15624.012   -1687.1562    482.55339 
    1370    15.750691    15.750691    15.750691    16530.219   -1685.1533    422.05567 
    1380    15.750691    15.750691    15.750691    17034.033   -1684.0466    390.18977 
    1390    15.750691    15.750691    15.750691    16662.604   -1684.7599    416.20872 
    1400    15.750691    15.750691    15.750691    15619.856   -1686.8693     487.0503 
    1410    15.750691    15.750691    15.750691    14642.625   -1688.8308    553.77987 
    1420    15.750691    15.750691    15.750691      14422.5   -1689.2812    572.33999 
    1430    15.750691    15.750691    15.750691    15060.414   -1688.1751    540.62234 
    1440    15.750691    15.750691    15.750691    15995.746   -1686.6141    493.62118 
    1450    15.750691    15.750691    15.750691    16507.855   -1685.7477    468.10597 
    1460    15.750691    15.750691    15.750691    16370.356   -1685.8686    473.72542 
    1470    15.750691    15.750691    15.750691     15989.93   -1686.3482    490.97406 
    1480    15.750691    15.750691    15.750691    15948.006   -1686.2941    491.87627 
    1490    15.750691    15.750691    15.750691    16393.726   -1685.4828    469.39954 
    1500    15.750691    15.750691    15.750691    16912.134   -1684.7597     450.0769 
    1510    15.750691    15.750691    15.750691    16925.558   -1685.2362     468.7851 
    1520    15.750691    15.750691    15.750691    16247.566   -1686.9679    527.26244 
    1530    15.750691    15.750691    15.750691    15329.505   -1688.7082    585.90038 
    1540    15.750691    15.750691    15.750691    14913.086   -1688.9974    597.94381 
    1550    15.750691    15.750691    15.750691    15449.957    -1687.335    547.48489 
    1560    15.750691    15.750691    15.750691    16729.382   -1684.5985    463.00164 
    1570    15.750691    15.750691    15.750691    17951.846   -1682.5646    401.13397 
    1580    15.750691    15.750691    15.750691    18256.476   -1682.6757    407.43706 
    1590    15.750691    15.750691    15.750691    17411.405   -1684.8244    478.90516 
    1600    15.750691    15.750691    15.750691        16083   -1687.3177    562.35677 
    1610    15.750691    15.750691    15.750691    15407.056   -1688.3131    598.71033 
    1620    15.750691    15.750691    15.750691    16069.832   -1687.3412     572.0903 
    1630    15.750691    15.750691    15.750691    17587.862   -1685.4263    514.80382 
    1640    15.750691    15.750691    15.750691    18761.513   -1684.0362    473.67102 
    1650    15.750691    15.750691    15.750691    18767.864   -1684.0055    475.41219 
    1660    15.750691    15.750691    15.750691    17805.576   -1685.0935    512.71394 
    1670    15.750691    15.750691    15.750691    16765.017   -1686.3271     554.8748 
    1680    15.750691    15.750691    15.750691    16390.006   -1686.8164    573.42382 
    1690    15.750691    15.750691    15.750691    16724.548    -1686.391    562.60637 
    1700    15.750691    15.750691    15.750691    17292.026   -1685.5756    538.96541 
    1710    15.750691    15.750691    15.750691    17623.139    -1684.989    522.25624 
    1720    15.750691    15.750691    15.750691    17560.746    -1684.821    518.75779 
    1730    15.750691    15.750691    15.750691    17263.062   -1684.8584     521.9684 
    1740    15.750691    15.750691    15.750691    17072.274   -1684.8028     522.6031 
    1750    15.750691    15.750691    15.750691    17287.397   -1684.5497    517.39575 
    1760    15.750691    15.750691    15.750691    17837.089   -1684.2968    512.55964 
    1770    15.750691    15.750691    15.750691    18261.051   -1684.3685    518.27002 
    1780    15.750691    15.750691    15.750691     18055.32   -1684.9195    539.30355 
    1790    15.750691    15.750691    15.750691    17155.596   -1685.7596    569.46215 
    1800    15.750691    15.750691    15.750691    16131.637   -1686.4105    593.34022 
    1810    15.750691    15.750691    15.750691    15790.493   -1686.3665    594.70737 
    1820    15.750691    15.750691    15.750691     16495.11   -1685.4075    566.71029 
    1830    15.750691    15.750691    15.750691    17848.418   -1683.8149    518.68568 
    1840    15.750691    15.750691    15.750691    19089.179   -1682.3123    473.95395 
    1850    15.750691    15.750691    15.750691     19638.44   -1681.7353    459.09748 
    1860    15.750691    15.750691    15.750691    19340.909   -1682.5025    487.44356 
    1870    15.750691    15.750691    15.750691    18439.865   -1684.1872    545.61207 
    1880    15.750691    15.750691    15.750691    17387.393   -1685.7742    601.15686 
    1890    15.750691    15.750691    15.750691    16792.631   -1686.4843    628.50416 
    1900    15.750691    15.750691    15.750691    17113.367   -1686.3111    626.65278 
    1910    15.750691    15.750691    15.750691    18039.004   -1685.7511    611.15802 
    1920    15.750691    15.750691    15.750691    18750.372   -1685.2415    596.16485 
    1930    15.750691    15.750691    15.750691    18773.572   -1684.9172     586.3584 
    1940    15.750691    15.750691    15.750691    18246.032   -1684.5766    575.79159 
    1950    15.750691    15.750691    15.750691    17839.503   -1683.8024    551.79192 
    1960    15.750691    15.750691    15.750691    18229.648   -1682.4741    511.06426 
    1970    15.750691    15.750691    15.750691     19341.14   -1681.2407    474.30101 
    1980    15.750691    15.750691    15.750691    20210.664   -1681.1664    474.93149 
    1990    15.750691    15.750691    15.750691    19833.806   -1682.7766    529.42031 
    2000    15.750691    15.750691    15.750691    18325.529   -1685.3526    614.97004 
    2010    15.750691    15.750691    15.750691     17068.17   -1687.1993    677.33499 
    2020    15.750691    15.750691    15.750691    17336.087    -1686.888    670.49194 
    2030    15.750691    15.750691    15.750691    18900.875   -1684.5134    597.56181 
    2040    15.750691    15.750691    15.750691    20338.036   -1681.8095    514.09935 
    2050    15.750691    15.750691    15.750691    20376.854   -1680.8052    484.47571 
    2060    15.750691    15.750691    15.750691    18896.422   -1682.1456    529.22579 
    2070    15.750691    15.750691    15.750691    17023.167   -1684.5809    609.23964 
    2080    15.750691    15.750691    15.750691    16300.349    -1686.014    658.03111 
    2090    15.750691    15.750691    15.750691    17419.941   -1685.2454     637.0575 
    2100    15.750691    15.750691    15.750691    19641.253   -1682.9225    566.72819 
    2110    15.750691    15.750691    15.750691    21429.621   -1680.9006    505.97237 
    2120    15.750691    15.750691    15.750691     21634.78   -1680.7276    503.83652 
    2130    15.750691    15.750691    15.750691     20317.97   -1682.4543    562.27591 
    2140    15.750691    15.750691    15.750691     18642.81    -1684.624    635.49385 
    2150    15.750691    15.750691    15.750691    17840.052   -1685.6255    671.93281 
    2160    15.750691    15.750691    15.750691    18133.937   -1685.0745    658.51379 
    2170    15.750691    15.750691    15.750691    18832.745   -1683.8009    621.22549 
    2180    15.750691    15.750691    15.750691    19162.317    -1682.843    593.19489 
    2190    15.750691    15.750691    15.750691    18998.643   -1682.6046    587.61934 
    2200    15.750691    15.750691    15.750691    18823.161    -1682.743    594.05469 
    2210    15.750691    15.750691    15.750691    19136.954   -1682.7158    595.59844 
    2220    15.750691    15.750691    15.750691    19908.273   -1682.3794    587.74563 
    2230    15.750691    15.750691    15.750691    20603.728   -1682.0366    580.01503 
    2240    15.750691    15.750691    15.750691    20766.421    -1682.017    582.78469 
    2250    15.750691    15.750691    15.750691    20382.408   -1682.3177    595.97106 
    2260    15.750691    15.750691    15.750691    19806.291   -1682.6237    609.59734 
    2270    15.750691    15.750691    15.750691     19400.35   -1682.6648    615.00124 
    2280    15.750691    15.750691    15.750691    19187.836   -1682.5145    614.30463 
    2290    15.750691    15.750691    15.750691    18949.759   -1682.4925    617.44248 
    2300    15.750691    15.750691    15.750691    18723.251   -1682.8143    631.09456 
    2310    15.750691    15.750691    15.750691    18848.461   -1683.2737    648.66071 
    2320    15.750691    15.750691    15.750691    19513.601   -1683.2849    651.65951 
    2330    15.750691    15.750691    15.750691    20464.248   -1682.4698    628.32617 
    2340    15.750691    15.750691    15.750691    21128.393   -1681.2613     592.5664 
    2350    15.750691    15.750691    15.750691    21074.892   -1680.5532    572.75587 
    2360    15.750691    15.750691    15.750691    20358.064   -1680.7739    582.54535 
    2370    15.750691    15.750691    15.750691     19458.75   -1681.6804    614.29617 
    2380    15.750691    15.750691    15.750691    18972.571   -1682.7262    650.53528 
    2390    15.750691    15.750691    15.750691    19177.639   -1683.2818    671.01822 
    2400    15.750691    15.750691    15.750691    19854.007    -1682.999    664.52891 
    2410    15.750691    15.750691    15.750691    20602.302   -1682.2486    642.78123 
    2420    15.750691    15.750691    15.750691    20996.056   -1681.8088    630.43515 
    2430    15.750691    15.750691    15.750691    20820.435   -1681.9523    636.26604 
    2440    15.750691    15.750691    15.750691    20409.557    -1682.269    647.51687 
    2450    15.750691    15.750691    15.750691    20243.319   -1682.3043     649.9087 
    2460    15.750691    15.750691    15.750691    20459.577   -1681.9727    640.76908 
    2470    15.750691    15.750691    15.750691     20801.23   -1681.4561    625.94457 
    2480    15.750691    15.750691    15.750691    20929.986   -1681.0566    615.09444 
    2490    15.750691    15.750691    15.750691    20833.037   -1680.9572    614.09747 
    2500    15.750691    15.750691    15.750691    20737.234   -1681.0187    618.67422 
    2510    15.750691    15.750691    15.750691    20920.961   -1680.9853    620.82429 
    2520    15.750691    15.750691    15.750691    21522.999   -1680.8801    621.20892 
    2530    15.750691    15.750691    15.750691    22159.771   -1680.9437    627.29204 
    2540    15.750691    15.750691    15.750691    22051.059   -1681.3132    643.27078 
    2550    15.750691    15.750691    15.750691    21022.943    -1681.961    668.05524 
    2560    15.750691    15.750691    15.750691    19909.383     -1682.58    691.67834 
    2570    15.750691    15.750691    15.750691      19709.3   -1682.6531    697.61746 
    2580    15.750691    15.750691    15.750691    20636.239   -1682.0104    680.44865 
    2590    15.750691    15.750691    15.750691    21954.434   -1680.9501    649.79896 
    2600    15.750691    15.750691    15.750691    22763.794   -1679.9274    620.41923 
    2610    15.750691    15.750691    15.750691    22872.875   -1679.4603     608.9392 
    2620    15.750691    15.750691    15.750691    22494.548   -1679.9544    628.20894 
    2630    15.750691    15.750691    15.750691    21533.751   -1681.3137    675.09201 
    2640    15.750691    15.750691    15.750691    20035.679   -1682.7872    725.50408 
    2650    15.750691    15.750691    15.750691    18771.939    -1683.293    744.75669 
    2660    15.750691    15.750691    15.750691    18777.689   -1682.1417    710.95973 
    2670    15.750691    15.750691    15.750691     20377.33   -1679.7469    637.71797 
    2680    15.750691    15.750691    15.750691    22665.355   -1677.6075    572.93027 
    2690    15.750691    15.750691    15.750691    24033.848   -1677.2914    566.21455 
    2700    15.750691    15.750691    15.750691    23614.283   -1679.1716    629.46627 
    2710    15.750691    15.750691    15.750691    22046.435   -1681.9879    722.94782 
    2720    15.750691    15.750691    15.750691    20803.415   -1683.8342    785.61791 
    2730    15.750691    15.750691    15.750691    20773.096   -1683.6612    783.17778 
    2740    15.750691    15.750691    15.750691    21600.941    -1681.795    725.86561 
    2750    15.750691    15.750691    15.750691    22418.752   -1679.3622    650.19331 
    2760    15.750691    15.750691    15.750691    22662.416   -1677.5157    593.42801 
    2770    15.750691    15.750691    15.750691    22358.125     -1677.01    579.72917 
    2780    15.750691    15.750691    15.750691    21820.977   -1678.0005    614.05351 
    2790    15.750691    15.750691    15.750691    21321.894   -1679.9059    677.94432 
    2800    15.750691    15.750691    15.750691    21104.233   -1681.7132    738.89358 
    2810    15.750691    15.750691    15.750691    21391.244   -1682.6007     770.0905 
    2820    15.750691    15.750691    15.750691    22171.905   -1682.2185    760.03322 
    2830    15.750691    15.750691    15.750691    23036.038   -1680.8188     716.9893 
    2840    15.750691    15.750691    15.750691    23411.303   -1679.3166    670.44611 
    2850    15.750691    15.750691    15.750691    23055.253   -1678.6483    650.34311 
    2860    15.750691    15.750691    15.750691    22267.872   -1678.9618    661.58156 
    2870    15.750691    15.750691    15.750691    21627.162   -1679.6377    684.77926 
    2880    15.750691    15.750691    15.750691    21445.901   -1680.0493    700.09322 
    2890    15.750691    15.750691    15.750691    21673.806   -1680.0596    702.97131 
    2900    15.750691    15.750691    15.750691    22171.815   -1679.8158    697.93621 
    2910    15.750691    15.750691    15.750691    22746.912   -1679.5377    691.93628 
    2920    15.750691    15.750691    15.750691    22997.979    -1679.572    695.88212 
    2930    15.750691    15.750691    15.750691    22733.235   -1680.1127    715.80081 
    2940    15.750691    15.750691    15.750691    22128.885    -1680.816    740.73564 
    2950    15.750691    15.750691    15.750691    21560.921   -1681.0054    749.23581 
    2960    15.750691    15.750691    15.750691    21458.065   -1680.2842    728.81081 
    2970    15.750691    15.750691    15.750691    22080.146   -1678.8731    686.71842 
    2980    15.750691    15.750691    15.750691    23189.612   -1677.4845    645.84442 
    2990    15.750691    15.750691    15.750691    24090.948   -1676.8603    629.91584 
    3000    15.750691    15.750691    15.750691    24299.275   -1677.3003     648.6363 
    3010    15.750691    15.750691    15.750691    23819.811   -1678.5717    694.77298 
    3020    15.750691    15.750691    15.750691    22948.222   -1680.1067    750.08925 
    3030    15.750691    15.750691    15.750691    22108.332   -1681.2639    793.51345 
    3040    15.750691    15.750691    15.750691    21851.712   -1681.4781    806.29572 
    3050    15.750691    15.750691    15.750691    22520.693   -1680.3724    776.23903 
    3060    15.750691    15.750691    15.750691    23681.539   -1678.2645    713.81878 
    3070    15.750691    15.750691    15.750691    24456.979   -1676.4614    660.84546 
    3080    15.750691    15.750691    15.750691    24468.364   -1676.1704    655.77968 
    3090    15.750691    15.750691    15.750691    24083.596   -1677.2247    693.75891 
    3100    15.750691    15.750691    15.750691    23762.098   -1678.5712    741.63261 
    3110    15.750691    15.750691    15.750691    23590.355   -1679.5513    777.97711 
    3120    15.750691    15.750691    15.750691    23478.161   -1680.0606    798.64113 
    3130    15.750691    15.750691    15.750691    23389.985   -1680.0176    800.62496 
    3140    15.750691    15.750691    15.750691    23420.378   -1679.4027     783.3755 
    3150    15.750691    15.750691    15.750691    23590.345   -1678.4943    756.06006 
    3160    15.750691    15.750691    15.750691      23803.4   -1677.6173    729.44104 
    3170    15.750691    15.750691    15.750691    24015.809   -1676.8726    707.19702 
    3180    15.750691    15.750691    15.750691    24366.256   -1676.3605    692.79944 
    3190    15.750691    15.750691    15.750691    24852.645   -1676.2903    692.90263 
    3200    15.750691    15.750691    15.750691    25154.111   -1676.7876    711.34774 
    3210    15.750691    15.750691    15.750691    24891.134   -1677.7466    744.53445 
    3220    15.750691    15.750691    15.750691     24194.83   -1678.6917     777.1283 
    3230    15.750691    15.750691    15.750691    23873.606   -1678.9406    787.37707 
    3240    15.750691    15.750691    15.750691    24443.747   -1678.2046    766.20596 
    3250    15.750691    15.750691    15.750691    25497.937   -1677.0716    732.37204 
    3260    15.750691    15.750691    15.750691    26161.115   -1676.6746    721.69547 
    3270    15.750691    15.750691    15.750691    25968.201   -1677.4757    748.76361 
    3280    15.750691    15.750691    15.750691    25307.657    -1678.787    791.84858 
    3290    15.750691    15.750691    15.750691    24718.764   -1679.7008    822.00128 
    3300    15.750691    15.750691    15.750691    24272.053   -1679.7335    823.63081 
    3310    15.750691    15.750691    15.750691     23919.63   -1678.8906    796.97809 
    3320    15.750691    15.750691    15.750691    23862.462   -1677.6129    756.40303 
    3330    15.750691    15.750691    15.750691    24118.927    -1676.529    722.22961 
    3340    15.750691    15.750691    15.750691    24386.077    -1676.041    707.52322 
    3350    15.750691    15.750691    15.750691    24331.377   -1676.3001    717.21207 
    3360    15.750691    15.750691    15.750691    23894.654    -1677.239    749.11176 
    3370    15.750691    15.750691    15.750691    23442.447   -1678.2371    783.50831 
    3380    15.750691    15.750691    15.750691    23327.127    -1678.459    793.86085 
    3390    15.750691    15.750691    15.750691    23523.317   -1677.9259    780.54906 
    3400    15.750691    15.750691    15.750691    23871.094   -1677.3441    765.71458 
    3410    15.750691    15.750691    15.750691    24305.075   -1676.9543    757.18277 
    3420    15.750691    15.750691    15.750691    24752.663   -1676.6785    752.78922 
    3430    15.750691    15.750691    15.750691    24959.153   -1676.7796    760.86405 
    3440    15.750691    15.750691    15.750691    24732.681   -1677.3953    785.69707 
    3450    15.750691    15.750691    15.750691      24446.4   -1677.9929    810.44257 
    3460    15.750691    15.750691    15.750691     24825.46   -1677.7942    810.43092 
    3470    15.750691    15.750691    15.750691    25978.794   -1676.6104    779.63406 
    3480    15.750691    15.750691    15.750691    27007.066   -1675.2983    745.11399 
    3490    15.750691    15.750691    15.750691    26880.252   -1675.0956    746.05499 
    3500    15.750691    15.750691    15.750691    25779.149   -1676.2015     789.0997 
    3510    15.750691    15.750691    15.750691    24930.285   -1677.4002    836.06909 
    3520    15.750691    15.750691    15.750691    25089.463   -1677.5137    849.22937 
    3530    15.750691    15.750691    15.750691    25753.944   -1676.7202    833.30253 
    3540    15.750691    15.750691    15.750691    26225.716   -1675.9879    818.43332 
    3550    15.750691    15.750691    15.750691    26577.102   -1675.7318     817.8708 
    3560    15.750691    15.750691    15.750691    27222.314   -1675.5872    820.40563 
    3570    15.750691    15.750691    15.750691    28109.969   -1675.3451     819.4785 
    3580    15.750691    15.750691    15.750691    28582.814   -1675.2961    824.08743 
    3590    15.750691    15.750691    15.750691    28170.548   -1675.6237    839.87958 
    3600    15.750691    15.750691    15.750691    27467.518   -1676.1033     859.6115 
    3610    15.750691    15.750691    15.750691    27348.962   -1676.2735    868.55622 
    3620    15.750691    15.750691    15.750691    27811.118   -1675.7223    853.75357 
    3630    15.750691    15.750691    15.750691    28139.385    -1674.585    819.78567 
    3640    15.750691    15.750691    15.750691    28114.596   -1673.5916    790.05014 
    3650    15.750691    15.750691    15.750691    28103.088   -1673.2494    780.86563 
    3660    15.750691    15.750691    15.750691    28048.161   -1673.5865     793.2625 
    3670    15.750691    15.750691    15.750691    27690.167   -1674.6775    829.29384 
    3680    15.750691    15.750691    15.750691    26999.185   -1676.3168    881.88043 
    3690    15.750691    15.750691    15.750691     26207.08   -1677.3883    915.44457 
    3700    15.750691    15.750691    15.750691    25841.112   -1676.7789    895.10762 
    3710    15.750691    15.750691    15.750691    26534.271   -1674.7218    829.03782 
    3720    15.750691    15.750691    15.750691    27954.271   -1672.6344    762.67561 
    3730    15.750691    15.750691    15.750691    28781.985   -1671.9719    742.00505 
    3740    15.750691    15.750691    15.750691     28265.19    -1673.276    783.81942 
    3750    15.750691    15.750691    15.750691    27013.564   -1675.6315    858.97433 
    3760    15.750691    15.750691    15.750691    26204.664    -1677.224    909.84286 
    3770    15.750691    15.750691    15.750691     26472.47   -1676.9422    900.96729 
    3780    15.750691    15.750691    15.750691    27438.072   -1675.4046    851.91704 
    3790    15.750691    15.750691    15.750691    28004.609   -1674.4506    820.85043 
    3800    15.750691    15.750691    15.750691    27553.653   -1675.1688    842.05529 
    3810    15.750691    15.750691    15.750691    26573.961   -1676.6156    885.82077 
    3820    15.750691    15.750691    15.750691    25880.101   -1677.2664      904.007 
    3830    15.750691    15.750691    15.750691    25856.977    -1676.792    886.08342 
    3840    15.750691    15.750691    15.750691    26394.848   -1675.7238    849.01658 
    3850    15.750691    15.750691    15.750691    27194.717   -1674.4747    806.46619 
    3860    15.750691    15.750691    15.750691    27828.878   -1673.4074     770.4911 
    3870    15.750691    15.750691    15.750691    27763.569   -1673.1372    760.72616 
    3880    15.750691    15.750691    15.750691    26855.692   -1673.9755    786.94608 
    3890    15.750691    15.750691    15.750691    25730.258   -1675.2876    829.13821 
    3900    15.750691    15.750691    15.750691    25402.852   -1675.9361    851.39466 
    3910    15.750691    15.750691    15.750691    26313.286   -1675.4182    837.70033 
    3920    15.750691    15.750691    15.750691    27706.007   -1674.3735    808.11186 
    3930    15.750691    15.750691    15.750691    28361.683    -1673.839    795.38648 
    3940    15.750691    15.750691    15.750691    27622.229   -1674.2586    813.75025 
    3950    15.750691    15.750691    15.750691    26221.475   -1675.2584    851.60822 
    3960    15.750691    15.750691    15.750691    25580.744   -1676.1149    886.01298 
    3970    15.750691    15.750691    15.750691    26089.649   -1676.4562    904.67789 
    3980    15.750691    15.750691    15.750691    26897.738   -1676.4113     911.0469 
    3990    15.750691    15.750691    15.750691    27242.941   -1676.0528    907.11324 
    4000    15.750691    15.750691    15.750691     27304.91   -1675.1751    886.50253 
    4010    15.750691    15.750691    15.750691     27864.35   -1673.7546    848.80549 
    4020    15.750691    15.750691    15.750691    29123.587   -1672.3003    810.49598 
    4030    15.750691    15.750691    15.750691    30205.763   -1671.5448    795.08565 
    4040    15.750691    15.750691    15.750691     30279.82   -1671.9052    816.08994 
    4050    15.750691    15.750691    15.750691    29611.809   -1673.1468    866.23812 
    4060    15.750691    15.750691    15.750691    29101.031   -1674.4286    918.54448 
    4070    15.750691    15.750691    15.750691    29347.651   -1674.8572     943.7428 
    4080    15.750691    15.750691    15.750691    30085.055   -1674.2656    935.46848 
    4090    15.750691    15.750691    15.750691    30331.467   -1673.3024    913.71705 
    4100    15.750691    15.750691    15.750691    29604.932   -1672.6754    900.96656 
    4110    15.750691    15.750691    15.750691    28635.051   -1672.4134    898.55931 
    4120    15.750691    15.750691    15.750691    28544.418   -1671.9954    890.51121 
    4130    15.750691    15.750691    15.750691    29380.456   -1671.2673    872.23495 
    4140    15.750691    15.750691    15.750691    30237.639   -1670.7938     861.6317 
    4150    15.750691    15.750691    15.750691    30507.544    -1671.201    878.42283 
    4160    15.750691    15.750691    15.750691    30096.411   -1672.7191    929.56119 
    4170    15.750691    15.750691    15.750691    29370.642   -1674.5452    989.23087 
    4180    15.750691    15.750691    15.750691    29063.187   -1675.1421    1008.5634 
    4190    15.750691    15.750691    15.750691    29692.272    -1673.901    968.49265 
    4200    15.750691    15.750691    15.750691    30855.989   -1671.8068     900.8479 
    4210    15.750691    15.750691    15.750691    31582.478   -1670.4499    856.47433 
    4220    15.750691    15.750691    15.750691    31402.265   -1670.6041    860.03937 
    4230    15.750691    15.750691    15.750691    30633.851   -1671.6521    892.19089 
    4240    15.750691    15.750691    15.750691    29621.494   -1672.6623    923.41206 
    4250    15.750691    15.750691    15.750691    28843.804   -1673.2718    941.84474 
    4260    15.750691    15.750691    15.750691    28618.204   -1673.4075    944.90836 
    4270    15.750691    15.750691    15.750691    28904.948   -1673.0428     931.8289 
    4280    15.750691    15.750691    15.750691    29362.225   -1672.4389    911.07972 
    4290    15.750691    15.750691    15.750691    29436.156   -1672.2263     902.6472 
    4300    15.750691    15.750691    15.750691    29183.397   -1672.8165    919.40596 
    4310    15.750691    15.750691    15.750691    29155.173   -1673.8788    950.73909 
    4320    15.750691    15.750691    15.750691    29363.102   -1674.5415    969.00798 
    4330    15.750691    15.750691    15.750691    29418.291   -1674.0978    952.04058 
    4340    15.750691    15.750691    15.750691    29340.256   -1672.6982    905.05674 
    4350    15.750691    15.750691    15.750691    29522.697   -1671.1971    855.55065 
    4360    15.750691    15.750691    15.750691     30086.68   -1670.3318    827.18256 
    4370    15.750691    15.750691    15.750691    30470.983     -1670.46    831.38206 
    4380    15.750691    15.750691    15.750691    29982.327   -1671.6106     868.9255 
    4390    15.750691    15.750691    15.750691    28752.421   -1673.2192     921.7393 
    4400    15.750691    15.750691    15.750691    27849.075   -1674.3805     960.8076 
    4410    15.750691    15.750691    15.750691    28067.712   -1674.4422    965.07722 
    4420    15.750691    15.750691    15.750691    28951.248   -1673.4829    936.86922 
    4430    15.750691    15.750691    15.750691    29551.201    -1672.446    906.03793 
    4440    15.750691    15.750691    15.750691     29415.41    -1672.162     898.9761 
    4450    15.750691    15.750691    15.750691    28995.172   -1672.3542    907.33234 
    4460    15.750691    15.750691    15.750691    29123.601   -1672.3749    910.94759 
    4470    15.750691    15.750691    15.750691    29901.889   -1672.0966    905.82936 
    4480    15.750691    15.750691    15.750691    30630.118   -1671.8272    901.67445 
    4490    15.750691    15.750691    15.750691    30869.481   -1671.8863    908.60269 
    4500    15.750691    15.750691    15.750691    30935.466   -1672.1153    921.77731 
    4510    15.750691    15.750691    15.750691    30996.804   -1672.2337    932.45575 
    4520    15.750691    15.750691    15.750691    30875.864   -1672.5465    950.09583 
    4530    15.750691    15.750691    15.750691    30540.713   -1673.2766    981.60185 
    4540    15.750691    15.750691    15.750691     30320.02   -1673.7602    1006.0798 
    4550    15.750691    15.750691    15.750691    30543.383   -1673.2702    1000.5518 
    4560    15.750691    15.750691    15.750691    31156.287   -1672.0309    972.07613 
    4570    15.750691    15.750691    15.750691    31769.679   -1670.7594    943.69746 
    4580    15.750691    15.750691    15.750691    32187.484   -1669.6864    923.67305 
    4590    15.750691    15.750691    15.750691     32555.74   -1668.6306    907.29787 
    4600    15.750691    15.750691    15.750691    33025.049   -1667.6388     896.3914 
    4610    15.750691    15.750691    15.750691    33609.538   -1667.1011     902.4989 
    4620    15.750691    15.750691    15.750691    33799.745   -1667.4871    938.43706 
    4630    15.750691    15.750691    15.750691    33039.577   -1668.7365    999.60152 
    4640    15.750691    15.750691    15.750691    31732.445    -1670.033    1057.8393 
    4650    15.750691    15.750691    15.750691     30971.48   -1670.6406    1088.8382 
    4660    15.750691    15.750691    15.750691    31018.996   -1670.5932    1094.0412 
    4670    15.750691    15.750691    15.750691    31531.963   -1670.0967     1081.144 
    4680    15.750691    15.750691    15.750691    32296.383   -1669.1148    1050.3686 
    4690    15.750691    15.750691    15.750691    32969.622   -1668.1283    1017.8714 
    4700    15.750691    15.750691    15.750691     33213.99    -1668.119    1014.9318 
    4710    15.750691    15.750691    15.750691    32979.948   -1669.2463    1046.4703 
    4720    15.750691    15.750691    15.750691    32643.671   -1670.2463    1072.5626 
    4730    15.750691    15.750691    15.750691     32687.82   -1669.9893    1057.7485 
    4740    15.750691    15.750691    15.750691    33189.949   -1668.6779    1008.9349 
    4750    15.750691    15.750691    15.750691    33748.945   -1667.2741    957.21429 
    4760    15.750691    15.750691    15.750691    34158.605   -1666.7153    932.59156 
    4770    15.750691    15.750691    15.750691    34375.863   -1667.2848    944.01443 
    4780    15.750691    15.750691    15.750691    34127.916   -1668.4663    975.06756 
    4790    15.750691    15.750691    15.750691    33094.787    -1669.818    1011.3909 
    4800    15.750691    15.750691    15.750691    31714.356   -1671.0715    1043.8814 
    4810    15.750691    15.750691    15.750691    31050.108   -1671.6007    1052.5188 
    4820    15.750691    15.750691    15.750691     31617.75   -1671.1595    1029.7494 
    4830    15.750691    15.750691    15.750691    32865.121   -1670.3751     995.7755 
    4840    15.750691    15.750691    15.750691    33768.695   -1669.8897    971.30244 
    4850    15.750691    15.750691    15.750691    33799.429    -1669.709    956.96604 
    4860    15.750691    15.750691    15.750691    33183.741   -1669.6129    946.19252 
    4870    15.750691    15.750691    15.750691     32309.39   -1669.6627     941.0444 
    4880    15.750691    15.750691    15.750691    31450.876   -1670.0391    947.13327 
    4890    15.750691    15.750691    15.750691    30828.264   -1670.6271    960.71995 
    4900    15.750691    15.750691    15.750691    30389.596   -1671.2589    976.32966 
    4910    15.750691    15.750691    15.750691    30143.091   -1671.9376     993.7607 
    4920    15.750691    15.750691    15.750691    30175.383   -1672.5297    1008.5232 
    4930    15.750691    15.750691    15.750691    30293.539   -1672.5155    1004.2561 
    4940    15.750691    15.750691    15.750691    30330.542   -1671.4705    968.00258 
    4950    15.750691    15.750691    15.750691    30423.131   -1669.9721    918.46125 
    4960    15.750691    15.750691    15.750691    30650.651   -1669.3198    896.75941 
    4970    15.750691    15.750691    15.750691    30834.886   -1669.9986    918.27219 
    4980    15.750691    15.750691    15.750691    31018.794   -1671.0002    951.56489 
    4990    15.750691    15.750691    15.750691    31439.061   -1671.2395     962.5865 
    5000    15.750691    15.750691    15.750691    31995.551   -1670.9412    958.17739 
    5010    15.750691    15.750691    15.750691    32388.469   -1670.8793    962.55461 
    5020    15.750691    15.750691    15.750691    32604.113   -1671.3409     984.8357 
    5030    15.750691    15.750691    15.750691    32406.598   -1672.0857    1017.4676 
    5040    15.750691    15.750691    15.750691    31810.568   -1672.3294    1035.6301 
    5050    15.750691    15.750691    15.750691    31327.255     -1671.59    1023.7895 
    5060    15.750691    15.750691    15.750691    31386.669   -1670.1878    991.77083 
    5070    15.750691    15.750691    15.750691    31918.036   -1668.6672     956.8376 
    5080    15.750691    15.750691    15.750691    32738.763   -1667.5575    935.92096 
    5090    15.750691    15.750691    15.750691    33516.503   -1667.3591    944.86723 
    5100    15.750691    15.750691    15.750691    33601.404   -1668.1396    985.55874 
    5110    15.750691    15.750691    15.750691    33062.084   -1669.3362    1039.4248 
    5120    15.750691    15.750691    15.750691    32681.938   -1670.1489    1079.8562 
    5130    15.750691    15.750691    15.750691    32928.435   -1670.1982    1093.6278 
    5140    15.750691    15.750691    15.750691    33741.407   -1669.7523    1088.7295 
    5150    15.750691    15.750691    15.750691    34604.734   -1669.1203    1075.2799 
    5160    15.750691    15.750691    15.750691    35281.921   -1667.9619    1043.5291 
    5170    15.750691    15.750691    15.750691     36310.72   -1666.1788    991.42615 
    5180    15.750691    15.750691    15.750691    37629.494   -1664.8141    952.45648 
    5190    15.750691    15.750691    15.750691    37812.036   -1664.9992    962.48565 
    5200    15.750691    15.750691    15.750691    36112.496   -1666.7279    1021.3726 
    5210    15.750691    15.750691    15.750691    33879.419   -1669.1226    1101.0363 
    5220    15.750691    15.750691    15.750691    33001.087   -1670.7502    1155.5028 
    5230    15.750691    15.750691    15.750691    33612.359   -1670.4671    1148.1525 
    5240    15.750691    15.750691    15.750691    34526.495   -1668.8781    1098.0666 
    5250    15.750691    15.750691    15.750691    34597.587    -1667.715    1060.2022 
    5260    15.750691    15.750691    15.750691    33583.572   -1667.7423    1059.0866 
    5270    15.750691    15.750691    15.750691    32529.386   -1668.2615    1073.0611 
    5280    15.750691    15.750691    15.750691    32505.693   -1668.2076    1068.8632 
    5290    15.750691    15.750691    15.750691    33245.192    -1667.457    1042.7977 
    5300    15.750691    15.750691    15.750691    34050.046   -1666.6113    1014.0557 
    5310    15.750691    15.750691    15.750691      34418.1   -1665.9811    992.80738 
    5320    15.750691    15.750691    15.750691    34353.058   -1665.6098    980.80774 
    5330    15.750691    15.750691    15.750691    34509.933   -1665.9563    992.52728 
    5340    15.750691    15.750691    15.750691    35142.859   -1667.4819    1042.1695 
    5350    15.750691    15.750691    15.750691    35894.004   -1669.4284    1105.4957 
    5360    15.750691    15.750691    15.750691    36376.544   -1670.3862    1137.5674 
    5370    15.750691    15.750691    15.750691    36503.762   -1670.0003    1126.5632 
    5380    15.750691    15.750691    15.750691    36140.679   -1669.0989    1098.2831 
    5390    15.750691    15.750691    15.750691    35488.037   -1668.2403    1070.6209 
    5400    15.750691    15.750691    15.750691    34950.889   -1667.4476    1044.8657 
    5410    15.750691    15.750691    15.750691    34457.186   -1666.8956    1026.9646 
    5420    15.750691    15.750691    15.750691    33977.683   -1666.6602    1019.6755 
    5430    15.750691    15.750691    15.750691    34000.702   -1666.5149    1016.2636 
    5440    15.750691    15.750691    15.750691    34641.768   -1666.4699    1017.3344 
    5450    15.750691    15.750691    15.750691    35078.863   -1667.0256    1038.6937 
    5460    15.750691    15.750691    15.750691    34364.368   -1668.5884    1092.9827 
    5470    15.750691    15.750691    15.750691    32994.922   -1670.2023     1149.901 
    5480    15.750691    15.750691    15.750691    32916.832   -1670.0222     1150.999 
    5490    15.750691    15.750691    15.750691    34679.173   -1667.8306    1089.0434 
    5500    15.750691    15.750691    15.750691    36634.367   -1665.3807    1019.3872 
    5510    15.750691    15.750691    15.750691    37268.447   -1664.2778    993.28663 
    5520    15.750691    15.750691    15.750691    36517.079   -1664.7574    1019.0695 
    5530    15.750691    15.750691    15.750691    35348.676   -1666.1122    1074.9352 
    5540    15.750691    15.750691    15.750691    34602.557   -1667.3509    1129.1737 
    5550    15.750691    15.750691    15.750691    34904.953   -1667.6872    1155.7032 
    5560    15.750691    15.750691    15.750691    36467.176   -1666.8776    1145.5102 
    5570    15.750691    15.750691    15.750691    37964.285   -1665.6036    1119.3069 
    5580    15.750691    15.750691    15.750691    38185.886   -1664.8252    1107.2903 
    5590    15.750691    15.750691    15.750691     37139.88   -1665.0202    1124.7288 
    5600    15.750691    15.750691    15.750691    35668.249   -1665.7991    1159.4066 
    5610    15.750691    15.750691    15.750691    35132.391   -1665.9746    1173.8059 
    5620    15.750691    15.750691    15.750691    35983.135   -1664.8338    1145.3894 
    5630    15.750691    15.750691    15.750691    37457.731   -1663.1597    1099.0021 
    5640    15.750691    15.750691    15.750691    38412.591   -1662.3817    1080.0537 
    5650    15.750691    15.750691    15.750691    38292.178   -1663.0228    1105.3932 
    5660    15.750691    15.750691    15.750691    37467.587   -1664.4627    1155.5321 
    5670    15.750691    15.750691    15.750691    36802.131   -1665.7792     1200.924 
    5680    15.750691    15.750691    15.750691    36653.752   -1666.4582    1224.5972 
    5690    15.750691    15.750691    15.750691    36668.455   -1666.5134    1226.3916 
    5700    15.750691    15.750691    15.750691    36567.718    -1665.924    1205.6578 
    5710    15.750691    15.750691    15.750691    36670.241   -1664.5538    1158.7714 
    5720    15.750691    15.750691    15.750691    37169.318   -1662.8925    1102.0657 
    5730    15.750691    15.750691    15.750691    37414.896   -1662.1541    1074.2974 
    5740    15.750691    15.750691    15.750691     36991.45   -1662.8123     1090.495 
    5750    15.750691    15.750691    15.750691    36247.943    -1664.095    1126.3101 
    5760    15.750691    15.750691    15.750691    35694.256   -1665.2341    1157.1689 
    5770    15.750691    15.750691    15.750691    35862.644   -1665.8443    1170.4164 
    5780    15.750691    15.750691    15.750691    36739.279   -1665.8184    1162.4007 
    5790    15.750691    15.750691    15.750691    37243.295    -1665.694    1149.8487 
    5800    15.750691    15.750691    15.750691    36526.229   -1666.0581    1150.9646 
    5810    15.750691    15.750691    15.750691    35233.958   -1666.4958     1152.572 
    5820    15.750691    15.750691    15.750691    34627.108   -1666.1734    1128.7805 
    5830    15.750691    15.750691    15.750691     35081.25    -1665.274    1086.0403 
    5840    15.750691    15.750691    15.750691    35820.687   -1664.8536    1058.1193 
    5850    15.750691    15.750691    15.750691    35926.949   -1665.3206    1058.1585 
    5860    15.750691    15.750691    15.750691    35394.632   -1666.3279    1075.4222 
    5870    15.750691    15.750691    15.750691    34661.622   -1667.6985    1104.2051 
    5880    15.750691    15.750691    15.750691     33880.02   -1668.9214    1128.3168 
    5890    15.750691    15.750691    15.750691    33404.718   -1669.0959    1119.8759 
    5900    15.750691    15.750691    15.750691    33778.156   -1667.9594    1071.6612 
    5910    15.750691    15.750691    15.750691    34903.902   -1666.3806    1011.9764 
    5920    15.750691    15.750691    15.750691     36163.47   -1665.5458    978.50542 
    5930    15.750691    15.750691    15.750691    36837.372   -1666.1366    992.47863 
    5940    15.750691    15.750691    15.750691    36320.531   -1668.1583    1053.5448 
    5950    15.750691    15.750691    15.750691    34997.142    -1670.557    1127.9665 
    5960    15.750691    15.750691    15.750691    34237.124   -1671.4109    1154.8686 
    5970    15.750691    15.750691    15.750691    34596.475   -1669.8093    1105.5286 
    5980    15.750691    15.750691    15.750691    35405.597   -1667.0197    1020.1109 
    5990    15.750691    15.750691    15.750691    35530.555   -1665.1703     965.8862 
    6000    15.750691    15.750691    15.750691    34529.149   -1665.3404    977.05554 
    6010    15.750691    15.750691    15.750691    33412.756   -1666.9423    1035.3555 
    6020    15.750691    15.750691    15.750691    33270.165   -1668.4337    1091.9654 
    6030    15.750691    15.750691    15.750691    34095.995    -1668.636    1108.7933 
    6040    15.750691    15.750691    15.750691    35102.468   -1667.7006    1089.5157 
    6050    15.750691    15.750691    15.750691    35233.494   -1666.8709     1072.659 
    6060    15.750691    15.750691    15.750691    34207.056   -1666.9976    1084.9038 
    6070    15.750691    15.750691    15.750691    32869.121   -1667.7821    1116.9489 
    6080    15.750691    15.750691    15.750691    32589.527   -1668.3327    1140.7823 
    6090    15.750691    15.750691    15.750691    34049.567   -1667.7412     1128.066 
    6100    15.750691    15.750691    15.750691    36273.347   -1665.8165    1073.3574 
    6110    15.750691    15.750691    15.750691    37702.743   -1663.6892    1012.7875 
    6120    15.750691    15.750691    15.750691    37331.896   -1662.9854    997.86836 
    6130    15.750691    15.750691    15.750691    35499.984   -1664.3508    1049.2182 
    6140    15.750691    15.750691    15.750691    33806.942   -1666.8349    1137.0637 
    6150    15.750691    15.750691    15.750691    33426.685   -1668.3902    1196.5387 
    6160    15.750691    15.750691    15.750691    34105.298   -1667.9184    1192.1306 
    6170    15.750691    15.750691    15.750691    35221.209   -1666.2949    1150.8146 
    6180    15.750691    15.750691    15.750691    36354.482   -1664.9603    1118.1507 
    6190    15.750691    15.750691    15.750691    36899.376   -1664.6064     1116.483 
    6200    15.750691    15.750691    15.750691    36946.574   -1665.0659    1140.9515 
    6210    15.750691    15.750691    15.750691    37021.636   -1665.5043    1165.3889 
    6220    15.750691    15.750691    15.750691     37377.61   -1665.1003    1163.7779 
    6230    15.750691    15.750691    15.750691    38023.124   -1664.1116    1143.9299 
    6240    15.750691    15.750691    15.750691    38331.051   -1663.5181    1136.5657 
    6250    15.750691    15.750691    15.750691    37853.245   -1663.4957    1147.4516 
    6260    15.750691    15.750691    15.750691    37522.452    -1663.561    1161.5098 
    6270    15.750691    15.750691    15.750691    38359.623   -1663.7232    1178.7284 
    6280    15.750691    15.750691    15.750691    39686.332   -1664.0394    1200.5615 
    6290    15.750691    15.750691    15.750691    40371.421   -1663.9866    1210.3601 
    6300    15.750691    15.750691    15.750691    40309.742   -1663.3602    1201.4854 
    6310    15.750691    15.750691    15.750691    39757.775   -1662.6521      1189.34 
    6320    15.750691    15.750691    15.750691    39136.304   -1662.1773    1184.0372 
    6330    15.750691    15.750691    15.750691    38732.798   -1661.7942    1181.4177 
    6340    15.750691    15.750691    15.750691     38413.18   -1661.4311    1179.3776 
    6350    15.750691    15.750691    15.750691    38391.542   -1661.4325    1188.7116 
    6360    15.750691    15.750691    15.750691    39196.247   -1661.7945    1209.2557 
    6370    15.750691    15.750691    15.750691    40391.628   -1662.1113    1228.1151 
    6380    15.750691    15.750691    15.750691    40690.251   -1662.3528    1243.9997 
    6390    15.750691    15.750691    15.750691    39874.426   -1662.6095    1259.4335 
    6400    15.750691    15.750691    15.750691    38981.311   -1662.8049    1271.8072 
    6410    15.750691    15.750691    15.750691    38746.915   -1662.9778    1282.1318 
    6420    15.750691    15.750691    15.750691    39207.886   -1663.1419     1290.674 
    6430    15.750691    15.750691    15.750691    39688.439   -1663.0194    1288.7036 
    6440    15.750691    15.750691    15.750691    39507.951    -1662.341    1267.9663 
    6450    15.750691    15.750691    15.750691    38793.838   -1661.3157    1235.4334 
    6460    15.750691    15.750691    15.750691     38323.71   -1660.4369    1207.1052 
    6470    15.750691    15.750691    15.750691    38527.604   -1659.7155    1183.9091 
    6480    15.750691    15.750691    15.750691    39133.985   -1658.9591    1160.3792 
    6490    15.750691    15.750691    15.750691    39234.049   -1658.8575    1158.3886 
    6500    15.750691    15.750691    15.750691    38387.182    -1660.187    1202.1812 
    6510    15.750691    15.750691    15.750691    37551.772    -1662.247    1269.4671 
    6520    15.750691    15.750691    15.750691    38001.392   -1663.4966    1311.2316 
    6530    15.750691    15.750691    15.750691    39758.981   -1663.3551    1308.4447 
    6540    15.750691    15.750691    15.750691    41363.117   -1662.7191    1288.7572 
    6550    15.750691    15.750691    15.750691    41385.367   -1662.4007    1277.6179 
    6560    15.750691    15.750691    15.750691    40162.026    -1662.179    1268.2699 
    6570    15.750691    15.750691    15.750691     39189.27   -1661.6831    1249.2371 
    6580    15.750691    15.750691    15.750691    39298.113   -1660.9547    1222.0323 
    6590    15.750691    15.750691    15.750691    39654.506   -1660.2168    1194.0128 
    6600    15.750691    15.750691    15.750691    39750.925   -1659.6148    1170.2165 
    6610    15.750691    15.750691    15.750691    39720.006   -1659.5231     1162.758 
    6620    15.750691    15.750691    15.750691    39459.609   -1660.6815    1194.7709 
    6630    15.750691    15.750691    15.750691    38851.713   -1663.1621    1267.8835 
    6640    15.750691    15.750691    15.750691    38251.524   -1665.5435    1336.4901 
    6650    15.750691    15.750691    15.750691    38126.528   -1666.0172    1342.9436 
    6660    15.750691    15.750691    15.750691    38639.827   -1664.2082     1275.711 
    6670    15.750691    15.750691    15.750691    39619.263   -1661.4635    1178.5546 
    6680    15.750691    15.750691    15.750691    40347.735   -1659.6011    1110.0377 
    6690    15.750691    15.750691    15.750691    40079.301   -1659.7178    1105.1559 
    6700    15.750691    15.750691    15.750691    39065.296   -1661.4777    1153.3011 
    6710    15.750691    15.750691    15.750691    38256.251   -1663.1722    1200.7334 
    6720    15.750691    15.750691    15.750691    38297.522     -1663.43    1204.3522 
    6730    15.750691    15.750691    15.750691    38974.555   -1662.6303    1176.0588 
    6740    15.750691    15.750691    15.750691      39295.1   -1662.1968    1160.5795 
    6750    15.750691    15.750691    15.750691     38751.76   -1663.0606    1187.0938 
    6760    15.750691    15.750691    15.750691    37852.308   -1664.6681    1238.1115 
    6770    15.750691    15.750691    15.750691    37357.439   -1665.6337    1269.8681 
    6780    15.750691    15.750691    15.750691    37642.404   -1665.0954     1255.039 
    6790    15.750691    15.750691    15.750691     38633.24   -1663.3018    1201.5974 
    6800    15.750691    15.750691    15.750691    40021.557   -1661.6658    1154.3778 
    6810    15.750691    15.750691    15.750691    41114.409   -1661.6445    1159.5724 
    6820    15.750691    15.750691    15.750691    41223.233   -1662.7418    1202.2006 
    6830    15.750691    15.750691    15.750691    40258.171   -1663.3997    1233.5679 
    6840    15.750691    15.750691    15.750691    39225.424   -1663.1641    1238.8981 
    6850    15.750691    15.750691    15.750691    39014.324   -1662.2561    1224.6634 
    6860    15.750691    15.750691    15.750691    39149.741   -1661.0847     1203.514 
    6870    15.750691    15.750691    15.750691    38762.739   -1660.6396    1206.3308 
    6880    15.750691    15.750691    15.750691    38143.832    -1661.299    1244.8309 
    6890    15.750691    15.750691    15.750691    38105.289   -1661.7501    1277.3721 
    6900    15.750691    15.750691    15.750691    38808.931   -1661.0015    1271.7493 
    6910    15.750691    15.750691    15.750691    39742.527    -1659.895    1253.4391 
    6920    15.750691    15.750691    15.750691     40582.46    -1659.691    1261.8339 
    6930    15.750691    15.750691    15.750691    41255.141   -1660.2227    1291.9031 
    6940    15.750691    15.750691    15.750691    41754.099   -1660.4332     1310.431 
    6950    15.750691    15.750691    15.750691    42076.227   -1659.9252    1304.7677 
    6960    15.750691    15.750691    15.750691    42160.374   -1659.4501    1298.4994 
    6970    15.750691    15.750691    15.750691    42085.738    -1659.485    1306.8779 
    6980    15.750691    15.750691    15.750691    42158.038   -1659.5486     1315.117 
    6990    15.750691    15.750691    15.750691    42444.712   -1659.1779    1308.8796 
    7000    15.750691    15.750691    15.750691    42809.325   -1658.4489    1290.7742 
    7010    15.750691    15.750691    15.750691    42986.908   -1657.8466     1276.318 
    7020    15.750691    15.750691    15.750691    42996.509   -1657.8122    1279.5926 
    7030    15.750691    15.750691    15.750691    42979.775   -1658.3424    1300.5716 
    7040    15.750691    15.750691    15.750691    43032.754   -1659.1639    1330.4797 
    7050    15.750691    15.750691    15.750691     43330.22   -1659.7011    1350.9237 
    7060    15.750691    15.750691    15.750691    43910.107   -1659.1975    1338.0756 
    7070    15.750691    15.750691    15.750691    44625.035   -1657.9237      1300.62 
    7080    15.750691    15.750691    15.750691    45062.967   -1657.3048    1283.5162 
    7090    15.750691    15.750691    15.750691    44753.056   -1657.9465      1305.99 
    7100    15.750691    15.750691    15.750691    43719.576   -1659.1784    1346.9558 
    7110    15.750691    15.750691    15.750691    42435.419    -1660.311    1384.2398 
    7120    15.750691    15.750691    15.750691    41750.773   -1660.7671    1399.1174 
    7130    15.750691    15.750691    15.750691    41914.211   -1660.0397    1375.5113 
    7140    15.750691    15.750691    15.750691    42374.088   -1658.3005     1319.271 
    7150    15.750691    15.750691    15.750691    42468.757    -1656.683    1266.7229 
    7160    15.750691    15.750691    15.750691    42058.993   -1656.5218    1260.2168 
    7170    15.750691    15.750691    15.750691    41229.014   -1657.8006    1299.4017 
    7180    15.750691    15.750691    15.750691    40412.138   -1659.2833    1345.3219 
    7190    15.750691    15.750691    15.750691    40441.843   -1659.9856    1366.5553 
    7200    15.750691    15.750691    15.750691    41492.457   -1659.6036    1353.1506 
    7210    15.750691    15.750691    15.750691    42754.566   -1658.3898     1313.127 
    7220    15.750691    15.750691    15.750691    43337.446   -1657.3265    1277.6991 
    7230    15.750691    15.750691    15.750691    42752.914   -1657.5166    1281.7335 
    7240    15.750691    15.750691    15.750691    41656.232   -1659.0481    1327.9513 
    7250    15.750691    15.750691    15.750691    41274.185   -1660.8139    1381.1695 
    7260    15.750691    15.750691    15.750691    41957.232    -1661.484    1398.9464 
    7270    15.750691    15.750691    15.750691    43035.945   -1660.4724    1362.5715 
    7280    15.750691    15.750691    15.750691     43489.71   -1658.6819    1300.8032 
    7290    15.750691    15.750691    15.750691    42783.943   -1657.9141    1270.7006 
    7300    15.750691    15.750691    15.750691     41818.56   -1658.2706    1275.9608 
    7310    15.750691    15.750691    15.750691    41389.063   -1658.3181    1272.2095 
    7320    15.750691    15.750691    15.750691    41516.279   -1657.6666    1247.6588 
    7330    15.750691    15.750691    15.750691    41924.171   -1657.3426     1234.731 
    7340    15.750691    15.750691    15.750691    41762.512    -1658.057    1255.8405 
    7350    15.750691    15.750691    15.750691    41176.973   -1659.8394    1311.7273 
    7360    15.750691    15.750691    15.750691    40878.166   -1662.0012    1380.1803 
    7370    15.750691    15.750691    15.750691     40990.76   -1663.1802    1417.6549 
    7380    15.750691    15.750691    15.750691     41497.06    -1662.213     1387.222 
    7390    15.750691    15.750691    15.750691    42474.442   -1659.5136    1302.3551 
    7400    15.750691    15.750691    15.750691    43451.991    -1657.222    1231.0828 
    7410    15.750691    15.750691    15.750691    43574.779   -1657.0138    1226.6868 
    7420    15.750691    15.750691    15.750691    42735.964   -1658.3357    1272.4134 
    7430    15.750691    15.750691    15.750691    41811.361   -1659.6712    1320.8026 
    7440    15.750691    15.750691    15.750691    41518.965   -1660.1245    1343.2876 
    7450    15.750691    15.750691    15.750691    42097.438   -1659.3635    1329.0071 
    7460    15.750691    15.750691    15.750691    43371.644   -1657.5902     1284.288 
    7470    15.750691    15.750691    15.750691    44193.331   -1656.2978     1256.136 
    7480    15.750691    15.750691    15.750691    43510.348   -1657.2167    1299.0584 
    7490    15.750691    15.750691    15.750691    42050.389   -1659.5046    1386.8188 
    7500    15.750691    15.750691    15.750691    41640.684   -1660.5208    1435.6921 
    7510    15.750691    15.750691    15.750691    43164.803   -1659.1267    1408.3167 
    7520    15.750691    15.750691    15.750691    45375.408   -1656.3774    1337.1447 
    7530    15.750691    15.750691    15.750691    46631.678   -1654.3572    1288.0474 
    7540    15.750691    15.750691    15.750691     46526.87     -1654.66    1311.7736 
    7550    15.750691    15.750691    15.750691    45499.566   -1656.8568    1395.2091 
    7560    15.750691    15.750691    15.750691    44852.149   -1658.5964    1463.9506 
    7570    15.750691    15.750691    15.750691    45225.847   -1658.0169    1458.3094 
    7580    15.750691    15.750691    15.750691    45884.006   -1655.8532    1400.7939 
    7590    15.750691    15.750691    15.750691    45969.884    -1654.404    1363.9893 
    7600    15.750691    15.750691    15.750691    45390.969   -1654.6325    1378.9039 
    7610    15.750691    15.750691    15.750691    44971.592   -1655.4773     1412.668 
    7620    15.750691    15.750691    15.750691    45189.791   -1655.7472    1427.7577 
    7630    15.750691    15.750691    15.750691    45238.438   -1655.3077    1419.6769 
    7640    15.750691    15.750691    15.750691    44998.478   -1654.6086    1402.5837 
    7650    15.750691    15.750691    15.750691    45221.947   -1654.0936    1390.6989 
    7660    15.750691    15.750691    15.750691    45777.126   -1654.1503    1396.3795 
    7670    15.750691    15.750691    15.750691    46418.623    -1654.826    1421.1019 
    7680    15.750691    15.750691    15.750691    46798.682   -1655.6908    1451.1083 
    7690    15.750691    15.750691    15.750691    46912.517   -1655.9673    1461.7271 
    7700    15.750691    15.750691    15.750691    47014.496   -1655.5598    1449.7717 
    7710    15.750691    15.750691    15.750691    47195.407   -1655.0201    1432.6183 
    7720    15.750691    15.750691    15.750691    47400.776   -1654.6549    1420.1695 
    7730    15.750691    15.750691    15.750691    47117.899   -1654.5742    1416.1017 
    7740    15.750691    15.750691    15.750691    45904.025   -1654.7115    1418.4145 
    7750    15.750691    15.750691    15.750691    44144.282   -1654.8228    1419.4668 
    7760    15.750691    15.750691    15.750691    43051.637   -1654.6985    1412.7059 
    7770    15.750691    15.750691    15.750691    43233.627   -1654.5175    1403.7721 
    7780    15.750691    15.750691    15.750691    44331.757   -1654.9774    1414.3444 
    7790    15.750691    15.750691    15.750691    45284.839   -1656.3883    1453.5983 
    7800    15.750691    15.750691    15.750691    45387.885   -1657.9454    1495.3785 
    7810    15.750691    15.750691    15.750691    45056.348   -1658.4969    1502.5202 
    7820    15.750691    15.750691    15.750691    45548.533   -1657.6679    1462.6918 
    7830    15.750691    15.750691    15.750691    47540.544   -1656.0725    1395.5364 
    7840    15.750691    15.750691    15.750691    49224.116   -1654.7565    1334.9154 
    7850    15.750691    15.750691    15.750691    49044.845   -1654.2121    1297.4961 
    7860    15.750691    15.750691    15.750691    47963.584   -1653.9098    1268.0851 
    7870    15.750691    15.750691    15.750691    47018.493   -1653.3657    1233.0613 
    7880    15.750691    15.750691    15.750691    45932.707   -1653.4682    1221.1143 
    7890    15.750691    15.750691    15.750691    44124.635   -1655.8408      1282.56 
    7900    15.750691    15.750691    15.750691    41847.456    -1660.393    1413.1192 
    7910    15.750691    15.750691    15.750691    40530.936   -1664.4933     1528.755 
    7920    15.750691    15.750691    15.750691    40960.439   -1665.2375    1537.5786 
    7930    15.750691    15.750691    15.750691     42226.53   -1662.1373    1425.5062 
    7940    15.750691    15.750691    15.750691     42856.89   -1657.6489    1272.1039 
    7950    15.750691    15.750691    15.750691    42478.002   -1654.7254    1171.5248 
    7960    15.750691    15.750691    15.750691    41477.035   -1654.6711    1164.8092 
    7970    15.750691    15.750691    15.750691    40122.899   -1657.1196     1240.139 
    7980    15.750691    15.750691    15.750691    39129.524   -1660.3748    1343.9304 
    7990    15.750691    15.750691    15.750691    39225.188   -1662.3183    1409.0159 
    8000    15.750691    15.750691    15.750691    40646.087   -1662.0117    1405.0527 
    8010    15.750691    15.750691    15.750691    43169.993   -1660.0538    1350.4933 
    8020    15.750691    15.750691    15.750691     45751.65   -1657.6884    1284.8047 
    8030    15.750691    15.750691    15.750691    47072.631   -1656.2589    1250.8286 
    8040    15.750691    15.750691    15.750691    46751.485   -1656.4925    1272.0568 
    8050    15.750691    15.750691    15.750691    45218.737   -1657.7662      1329.37 
    8060    15.750691    15.750691    15.750691    43883.358   -1658.5882    1375.4719 
    8070    15.750691    15.750691    15.750691    44034.565   -1658.1124    1382.1915 
    8080    15.750691    15.750691    15.750691    45247.104   -1656.7964    1362.1242 
    8090    15.750691    15.750691    15.750691    46097.899   -1655.8067    1350.7714 
    8100    15.750691    15.750691    15.750691    45830.313   -1655.8973    1371.3136 
    8110    15.750691    15.750691    15.750691    45136.186   -1656.4496    1404.1347 
    8120    15.750691    15.750691    15.750691    45152.981   -1656.6162    1422.4212 
    8130    15.750691    15.750691    15.750691    45840.455   -1656.1997    1420.0953 
    8140    15.750691    15.750691    15.750691     46542.67   -1655.2203     1398.464 
    8150    15.750691    15.750691    15.750691    46946.301   -1654.4515     1382.507 
    8160    15.750691    15.750691    15.750691    46666.121   -1654.9059    1404.4402 
    8170    15.750691    15.750691    15.750691    46016.566   -1655.8882    1442.8029 
    8180    15.750691    15.750691    15.750691    45794.029   -1655.9083    1450.9534 
    8190    15.750691    15.750691    15.750691    46148.449   -1654.7242    1421.3146 
    8200    15.750691    15.750691    15.750691      46370.7   -1653.5388    1391.8268 
    8210    15.750691    15.750691    15.750691    46073.793   -1653.6854    1404.5928 
    8220    15.750691    15.750691    15.750691     46055.36   -1654.7982    1448.3801 
    8230    15.750691    15.750691    15.750691    46931.667   -1655.3062    1473.8243 
    8240    15.750691    15.750691    15.750691     48345.88   -1654.7809    1467.0331 
    8250    15.750691    15.750691    15.750691    49222.078   -1653.8687    1448.0901 
    8260    15.750691    15.750691    15.750691     49124.53   -1652.8758    1426.9128 
    8270    15.750691    15.750691    15.750691    48782.968   -1652.1752    1415.5428 
    8280    15.750691    15.750691    15.750691    48489.642    -1652.465    1436.0037 
    8290    15.750691    15.750691    15.750691    47878.799   -1653.6975     1486.717 
    8300    15.750691    15.750691    15.750691    47325.652   -1654.8506    1535.1465 
    8310    15.750691    15.750691    15.750691    47601.441   -1655.0906    1554.3117 
    8320    15.750691    15.750691    15.750691    48158.483   -1654.4293    1543.9444 
[...]
   67870    15.750691    15.750691    15.750691    96785.689   -1625.6269    302.20709 
   67880    15.750691    15.750691    15.750691    97141.692   -1625.0092    283.02302 
   67890    15.750691    15.750691    15.750691    97111.609   -1624.6528    271.95623 
   67900    15.750691    15.750691    15.750691    96577.325   -1624.7462    274.85368 
   67910    15.750691    15.750691    15.750691    95814.103   -1625.1242    286.58957 
   67920    15.750691    15.750691    15.750691    95286.732   -1625.4534    296.81399 
   67930    15.750691    15.750691    15.750691    95248.957   -1625.5291    299.16941 
   67940    15.750691    15.750691    15.750691    95574.148   -1625.4364    296.29268 
   67950    15.750691    15.750691    15.750691    95996.584   -1625.3777    294.46883 
   67960    15.750691    15.750691    15.750691     96360.27   -1625.4011    295.19344 
   67970    15.750691    15.750691    15.750691    96584.503   -1625.3927    294.93034 
   67980    15.750691    15.750691    15.750691    96540.817   -1625.3057    292.23052 
   67990    15.750691    15.750691    15.750691    96125.062   -1625.2189     289.5346 
   68000    15.750691    15.750691    15.750691    95410.872   -1625.1667    287.91094 
   68010    15.750691    15.750691    15.750691    94562.011   -1625.1306    286.79144 
   68020    15.750691    15.750691    15.750691    93731.899   -1625.1466    287.28934 
   68030    15.750691    15.750691    15.750691     93115.86   -1625.2625    290.89028 
   68040    15.750691    15.750691    15.750691    92923.973   -1625.4142    295.59859 
   68050    15.750691    15.750691    15.750691    93280.609    -1625.424    295.90194 
   68060    15.750691    15.750691    15.750691    94099.786   -1625.2075    289.17801 
   68070    15.750691    15.750691    15.750691    95045.686   -1624.9565    281.38786 
   68080    15.750691    15.750691    15.750691    95713.672   -1624.9783    282.06486 
   68090    15.750691    15.750691    15.750691    95928.967   -1625.3308    293.00929 
   68100    15.750691    15.750691    15.750691    95870.593   -1625.7155    304.95602 
   68110    15.750691    15.750691    15.750691     95892.95   -1625.7578    306.26888 
   68120    15.750691    15.750691    15.750691    96083.066   -1625.4065    295.36199 
   68130    15.750691    15.750691    15.750691    96172.213    -1625.001     282.7692 
   68140    15.750691    15.750691    15.750691    95953.064    -1624.879    278.97967 
   68150    15.750691    15.750691    15.750691    95529.028   -1625.0683    284.85608 
   68160    15.750691    15.750691    15.750691    95097.002   -1625.4033    295.26201 
   68170    15.750691    15.750691    15.750691     94750.73   -1625.7052    304.63782 
   68180    15.750691    15.750691    15.750691    94535.504   -1625.8242    308.33477 
   68190    15.750691    15.750691    15.750691    94553.322   -1625.6723    303.61483 
   68200    15.750691    15.750691    15.750691    94877.687   -1625.2837    291.54447 
   68210    15.750691    15.750691    15.750691    95415.456   -1624.8506    278.09599 
   68220    15.750691    15.750691    15.750691    95905.259   -1624.6554    272.03359 
   68230    15.750691    15.750691    15.750691    96069.242   -1624.8582    278.33062 
   68240    15.750691    15.750691    15.750691     95849.11   -1625.2888    291.70019 
   68250    15.750691    15.750691    15.750691    95429.519   -1625.5636    300.23481 
   68260    15.750691    15.750691    15.750691     95043.55   -1625.4747    297.47709 
   68270    15.750691    15.750691    15.750691    94816.154    -1625.181    288.35692 
   68280    15.750691    15.750691    15.750691    94735.856   -1625.0243    283.49258 
   68290    15.750691    15.750691    15.750691    94788.149   -1625.2161     289.4506 
   68300    15.750691    15.750691    15.750691    95048.662   -1625.6693    303.52558 
   68310    15.750691    15.750691    15.750691    95531.837   -1626.0698     315.9627 
   68320    15.750691    15.750691    15.750691    96075.536    -1626.119    317.49147 
   68330    15.750691    15.750691    15.750691    96442.304   -1625.7749    306.80478 
   68340    15.750691    15.750691    15.750691     96463.74   -1625.2591    290.78433 
   68350    15.750691    15.750691    15.750691    96138.032   -1624.8415    277.81294 
   68360    15.750691    15.750691    15.750691    95568.377   -1624.6834    272.89898 
   68370    15.750691    15.750691    15.750691     94835.45   -1624.7955    276.38102 
   68380    15.750691    15.750691    15.750691    93999.933   -1625.0512    284.32256 
   68390    15.750691    15.750691    15.750691    93247.909   -1625.2842    291.55933 
   68400    15.750691    15.750691    15.750691    92945.526   -1625.3746    294.36702 
   68410    15.750691    15.750691    15.750691     93370.78   -1625.2904    291.75184 
   68420    15.750691    15.750691    15.750691    94374.514   -1625.1343    286.90532 
   68430    15.750691    15.750691    15.750691    95472.653   -1625.0561    284.47807 
   68440    15.750691    15.750691    15.750691    96223.968   -1625.1221    286.52693 
   68450    15.750691    15.750691    15.750691     96445.46   -1625.3199    292.66993 
   68460    15.750691    15.750691    15.750691     96212.62   -1625.5291    299.16725 
   68470    15.750691    15.750691    15.750691     95750.67   -1625.5484    299.76546 
   68480    15.750691    15.750691    15.750691    95278.281   -1625.3201    292.67648 
   68490    15.750691    15.750691    15.750691    94872.993   -1625.0272    283.57935 
   68500    15.750691    15.750691    15.750691    94455.784   -1624.9272    280.47638 
   68510    15.750691    15.750691    15.750691    93959.446   -1625.1301    286.77553 
   68520    15.750691    15.750691    15.750691    93495.193   -1625.4762    297.52531 
   68530    15.750691    15.750691    15.750691    93272.609    -1625.673    303.63648 
   68540    15.750691    15.750691    15.750691      93381.2   -1625.6037    301.48663 
   68550    15.750691    15.750691    15.750691    93723.116   -1625.4251    295.94255 
   68560    15.750691    15.750691    15.750691    94142.699   -1625.3455    293.46981 
   68570    15.750691    15.750691    15.750691    94587.949   -1625.3805      294.553 
   68580    15.750691    15.750691    15.750691    95044.482   -1625.3843    294.67002 
   68590    15.750691    15.750691    15.750691    95424.611   -1625.2867    291.64014 
   68600    15.750691    15.750691    15.750691     95623.45   -1625.1736    288.12655 
   68610    15.750691    15.750691    15.750691    95652.724   -1625.1175    286.38388 
   68620    15.750691    15.750691    15.750691    95611.166    -1625.056     284.4704 
   68630    15.750691    15.750691    15.750691     95585.03   -1624.9151      280.095 
   68640    15.750691    15.750691    15.750691    95571.983   -1624.7964    276.41187 
   68650    15.750691    15.750691    15.750691    95435.405    -1624.914    280.06668 
   68660    15.750691    15.750691    15.750691    95024.318     -1625.31    292.36399 
   68670    15.750691    15.750691    15.750691    94371.295   -1625.7149    304.93792 
   68680    15.750691    15.750691    15.750691    93759.509   -1625.7918     307.3248 
   68690    15.750691    15.750691    15.750691    93495.497   -1625.5098    298.57109 
   68700    15.750691    15.750691    15.750691    93604.446   -1625.1475    287.31806 
   68710    15.750691    15.750691    15.750691    93871.334   -1624.9697    281.79507 
   68720    15.750691    15.750691    15.750691    94140.969   -1625.0602    284.60489 
   68730    15.750691    15.750691    15.750691    94466.786   -1625.3454    293.46214 
   68740    15.750691    15.750691    15.750691    94987.585   -1625.6111    301.71285 
   68750    15.750691    15.750691    15.750691    95691.078   -1625.6121    301.74166 
   68760    15.750691    15.750691    15.750691    96333.652   -1625.3039    292.17105 
   68770    15.750691    15.750691    15.750691    96584.276   -1624.9231    280.34623 
   68780    15.750691    15.750691    15.750691    96242.132   -1624.7505    274.98595 
   68790    15.750691    15.750691    15.750691    95406.542   -1624.8026     276.5979 
   68800    15.750691    15.750691    15.750691    94428.692   -1624.9005    279.64102 
   68810    15.750691    15.750691    15.750691     93673.48   -1624.9789    282.07675 
   68820    15.750691    15.750691    15.750691    93348.469    -1625.104    285.96508 
   68830    15.750691    15.750691    15.750691    93444.392   -1625.2863    291.62627 
   68840    15.750691    15.750691    15.750691     93762.09   -1625.4459    296.58363 
   68850    15.750691    15.750691    15.750691    94080.552   -1625.5342    299.32804 
   68860    15.750691    15.750691    15.750691    94308.795   -1625.5805    300.76773 
   68870    15.750691    15.750691    15.750691    94448.388   -1625.6059    301.55481 
   68880    15.750691    15.750691    15.750691    94502.024    -1625.584    300.87518 
   68890    15.750691    15.750691    15.750691    94503.525   -1625.4932    298.05371 
   68900    15.750691    15.750691    15.750691     94572.46   -1625.3353     293.1493 
   68910    15.750691    15.750691    15.750691    94828.808   -1625.1349    286.92478 
   68920    15.750691    15.750691    15.750691    95272.799   -1624.9783    282.06046 
   68930    15.750691    15.750691    15.750691     95816.68   -1624.9809    282.14154 
   68940    15.750691    15.750691    15.750691    96365.514   -1625.1495    287.37776 
   68950    15.750691    15.750691    15.750691    96863.974   -1625.3186    292.62656 
   68960    15.750691    15.750691    15.750691    97297.008   -1625.2969    291.95098 
   68970    15.750691    15.750691    15.750691    97687.463   -1625.0652     284.7564 
   68980    15.750691    15.750691    15.750691    98048.516   -1624.7882    276.15586 
   68990    15.750691    15.750691    15.750691     98288.63   -1624.6725     272.5615 
   69000    15.750691    15.750691    15.750691    98219.646   -1624.8253    277.30804 
   69010    15.750691    15.750691    15.750691    97716.215   -1625.2114    289.30059 
   69020    15.750691    15.750691    15.750691    96849.465    -1625.651    302.95436 
   69030    15.750691    15.750691    15.750691     95838.38   -1625.8858    310.24529 
   69040    15.750691    15.750691    15.750691    94934.222   -1625.7752    306.81135 
   69050    15.750691    15.750691    15.750691    94260.285   -1625.4197    295.77194 
   69060    15.750691    15.750691    15.750691    93744.808   -1625.0799    285.21846 
   69070    15.750691    15.750691    15.750691    93278.628   -1624.9727    281.88902 
   69080    15.750691    15.750691    15.750691    92857.479   -1625.0706    284.92396 
   69090    15.750691    15.750691    15.750691    92537.332   -1625.1356     286.9402 
   69100    15.750691    15.750691    15.750691    92315.609   -1625.0038    282.84682 
   69110    15.750691    15.750691    15.750691    92113.016   -1624.7939    276.33124 
   69120    15.750691    15.750691    15.750691    91879.961   -1624.7634    275.38465 
   69130    15.750691    15.750691    15.750691    91771.158    -1624.991    282.45385 
   69140    15.750691    15.750691    15.750691    92134.197   -1625.3318    293.04035 
   69150    15.750691    15.750691    15.750691    93172.112   -1625.6146     301.8229 
   69160    15.750691    15.750691    15.750691    94696.916   -1625.7333    305.51169 
   69170    15.750691    15.750691    15.750691    96247.429   -1625.6524    303.00114 
   69180    15.750691    15.750691    15.750691    97349.758   -1625.4652    297.18719 
   69190    15.750691    15.750691    15.750691    97773.766    -1625.318    292.61414 
   69200    15.750691    15.750691    15.750691    97675.763   -1625.2058    289.12303 
   69210    15.750691    15.750691    15.750691    97375.715    -1625.007    282.94637 
   69220    15.750691    15.750691    15.750691    96956.578   -1624.7576    275.20568 
   69230    15.750691    15.750691    15.750691    96262.906   -1624.7045    273.55902 
   69240    15.750691    15.750691    15.750691    95299.788   -1624.9732    281.90167 
   69250    15.750691    15.750691    15.750691    94388.833   -1625.3306    292.99816 
   69260    15.750691    15.750691    15.750691    93904.776   -1625.4331    296.18171 
   69270    15.750691    15.750691    15.750691    93940.035   -1625.2096    289.24082 
   69280    15.750691    15.750691    15.750691    94249.007   -1624.9075    279.86118 
   69290    15.750691    15.750691    15.750691    94505.295   -1624.8341    277.58516 
   69300    15.750691    15.750691    15.750691    94559.695   -1625.1116     286.2033 
   69310    15.750691    15.750691    15.750691    94470.123   -1625.5885    301.01376 
   69320    15.750691    15.750691    15.750691    94363.657   -1625.9165    311.19946 
   69330    15.750691    15.750691    15.750691    94339.895   -1625.8482    309.07905 
   69340    15.750691    15.750691    15.750691    94374.102   -1625.5302    299.20903 
   69350    15.750691    15.750691    15.750691    94369.499   -1625.3247    292.82382 
   69360    15.750691    15.750691    15.750691    94367.959     -1625.34    293.29711 
   69370    15.750691    15.750691    15.750691    94548.901   -1625.3785    294.49033 
   69380    15.750691    15.750691    15.750691    94938.769   -1625.2901    291.74379 
   69390    15.750691    15.750691    15.750691    95273.196   -1625.1609     287.7326 
   69400    15.750691    15.750691    15.750691    95246.752   -1625.1379     287.0175 
   69410    15.750691    15.750691    15.750691     94867.34   -1625.2329    289.96961 
   69420    15.750691    15.750691    15.750691    94418.628    -1625.383    294.63251 
   69430    15.750691    15.750691    15.750691    94122.868   -1625.5404    299.51953 
   69440    15.750691    15.750691    15.750691    94014.309   -1625.6203     301.9995 
   69450    15.750691    15.750691    15.750691    94076.715   -1625.5149    298.72441 
   69460    15.750691    15.750691    15.750691    94301.196    -1625.243    290.28241 
   69470    15.750691    15.750691    15.750691     94623.66   -1624.9892    282.40039 
   69480    15.750691    15.750691    15.750691    94948.168     -1624.92    280.24984 
   69490    15.750691    15.750691    15.750691    95198.594   -1625.0188    283.31671 
   69500    15.750691    15.750691    15.750691    95261.295   -1625.1468    287.29198 
   69510    15.750691    15.750691    15.750691    95036.119   -1625.2364    290.07707 
   69520    15.750691    15.750691    15.750691    94568.338   -1625.3309    293.01259 
   69530    15.750691    15.750691    15.750691     94093.39   -1625.3779    294.47007 
   69540    15.750691    15.750691    15.750691    93818.957   -1625.2114    289.29659 
   69550    15.750691    15.750691    15.750691    93715.824   -1624.8707    278.72058 
   69560    15.750691    15.750691    15.750691    93603.713   -1624.7108    273.75688 
   69570    15.750691    15.750691    15.750691    93395.674   -1624.9976     282.6647 
   69580    15.750691    15.750691    15.750691    93240.143   -1625.4981    298.20271 
   69590    15.750691    15.750691    15.750691    93365.184     -1625.69    304.15882 
   69600    15.750691    15.750691    15.750691    93808.033   -1625.3798    294.52921 
   69610    15.750691    15.750691    15.750691    94371.022   -1624.9169    280.15657 
   69620    15.750691    15.750691    15.750691    94839.041   -1624.7527    275.05596 
   69630    15.750691    15.750691    15.750691    95171.589   -1624.9505    281.19408 
   69640    15.750691    15.750691    15.750691    95459.141   -1625.1967     288.8393 
   69650    15.750691    15.750691    15.750691    95777.121   -1625.2035     289.0519 
   69660    15.750691    15.750691    15.750691    96064.344   -1625.0286    283.62359 
   69670    15.750691    15.750691    15.750691     96143.36   -1624.9701    281.80905 
   69680    15.750691    15.750691    15.750691    95907.938   -1625.1889    288.60389 
   69690    15.750691    15.750691    15.750691    95464.357   -1625.5213    298.92444 
   69700    15.750691    15.750691    15.750691    94953.012   -1625.6979    304.41133 
   69710    15.750691    15.750691    15.750691    94310.123   -1625.6496    302.91227 
   69720    15.750691    15.750691    15.750691    93386.356   -1625.5029    298.35912 
   69730    15.750691    15.750691    15.750691    92278.585   -1625.3965    295.05253 
   69740    15.750691    15.750691    15.750691    91387.782   -1625.3834    294.64659 
   69750    15.750691    15.750691    15.750691    91168.726   -1625.4134    295.57655 
   69760    15.750691    15.750691    15.750691    91863.851   -1625.3965    295.05164 
   69770    15.750691    15.750691    15.750691    93359.703   -1625.3344    293.12201 
   69780    15.750691    15.750691    15.750691    95243.461   -1625.3224    292.74954 
   69790    15.750691    15.750691    15.750691    97038.983   -1625.4101    295.47301 
   69800    15.750691    15.750691    15.750691     98454.05   -1625.4959    298.13518 
   69810    15.750691    15.750691    15.750691    99480.881   -1625.4007    295.17592 
   69820    15.750691    15.750691    15.750691    100191.91   -1625.1127     286.2337 
   69830    15.750691    15.750691    15.750691     100523.6   -1624.8395    277.74991 
   69840    15.750691    15.750691    15.750691    100322.52   -1624.7807    275.92297 
   69850    15.750691    15.750691    15.750691    99543.016   -1624.9793    282.09143 
   69860    15.750691    15.750691    15.750691    98351.053    -1625.306    292.23671 
   69870    15.750691    15.750691    15.750691    97015.336   -1625.5496    299.80379 
   69880    15.750691    15.750691    15.750691    95751.979   -1625.6177    301.92056 
   69890    15.750691    15.750691    15.750691    94685.414    -1625.569    300.40782 
   69900    15.750691    15.750691    15.750691    93893.139   -1625.4376    296.32616 
   69910    15.750691    15.750691    15.750691    93472.378   -1625.2444    290.32701 
   69920    15.750691    15.750691    15.750691    93506.935   -1625.1321    286.84021 
   69930    15.750691    15.750691    15.750691    93925.742   -1625.2397    290.18275 
   69940    15.750691    15.750691    15.750691    94513.491    -1625.494    298.07803 
   69950    15.750691    15.750691    15.750691      95115.3   -1625.6746    303.68705 
   69960    15.750691    15.750691    15.750691     95722.67   -1625.6371     302.5226 
   69970    15.750691    15.750691    15.750691    96317.566   -1625.3949    294.99924 
   69980    15.750691    15.750691    15.750691    96720.186   -1625.0914    285.57396 
   69990    15.750691    15.750691    15.750691    96704.106   -1624.9479    281.11839 
   70000    15.750691    15.750691    15.750691    96303.948    -1625.061     284.6289 
Loop time of 2.73299 on 4 procs for 10000 steps with 250 atoms

Performance: 316.137 ns/day, 0.076 hours/ns, 3658.993 timesteps/s
96.4% CPU use with 4 MPI tasks x no OpenMP threads

MPI task timing breakdown:
Section |  min time  |  avg time  |  max time  |%varavg| %total
---------------------------------------------------------------
Pair    | 1.9253     | 2.0642     | 2.165      |   7.0 | 75.53
Neigh   | 0          | 0          | 0          |   0.0 |  0.00
Comm    | 0.43125    | 0.53062    | 0.66735    |  13.6 | 19.42
Output  | 0.074741   | 0.079152   | 0.087217   |   1.7 |  2.90
Modify  | 0.01068    | 0.011038   | 0.011674   |   0.4 |  0.40
Other   |            | 0.04797    |            |       |  1.76

Nlocal:    62.5 ave 66 max 61 min
Histogram: 2 0 1 0 0 0 0 0 0 1
Nghost:    1120.5 ave 1143 max 1094 min
Histogram: 1 0 0 1 0 0 0 0 1 1
Neighs:    4479.5 ave 4860 max 3999 min
Histogram: 1 0 1 0 0 0 0 0 0 2

Total # of neighbors = 17918
Ave neighs/atom = 71.672
Neighbor list builds = 0
Dangerous builds = 0
unfix           4

#-------------------------------------------------
Total wall time: 0:00:15
