LAMMPS (3 Mar 2020)

# Mo, bcc
# # ---------- Initialize Simulation ---------------------
clear
units           metal
dimension       3
boundary        p p p
atom_style      atomic
atom_modify     map array

# # ---------- Create Atoms ---------------------
lattice         bcc 4.00
Lattice spacing in x,y,z = 4 4 4
region          box block 0 5 0 5 0 5 units lattice
create_box      1 box
Created orthogonal box = (0 0 0) to (20 20 20)
  1 by 2 by 2 MPI processor grid
create_atoms    1 box
Created 250 atoms
  create_atoms CPU = 0.000218268 secs

# # ---------- Define Interatomic Potential ---------------------
pair_style      eam/alloy
pair_coeff      * * Mo_Zhou04.eam.alloy Mo
Reading potential file Mo_Zhou04.eam.alloy with DATE: 2018-03-30
neighbor        2.0 bin
neigh_modify    delay 10 check yes

#  # ---------- Define Settings ---------------------
compute         eng all pe/atom
compute         eatoms all reduce sum c_eng

#  # ---------- Run Minimization ---------------------
reset_timestep  0
fix             1 all box/relax iso 0.0 vmax 0.001
thermo          10
thermo_style    custom step pe lx ly lz press pxx pyy pzz c_eatoms
min_style       cg
minimize        1e-25 1e-25 5000 10000
WARNING: Using 'neigh_modify every 1 delay 0 check yes' setting during minimization (src/min.cpp:190)
Neighbor list info ...
  update every 1 steps, delay 0 steps, check yes
  max neighbors/atom: 2000, page size: 100000
  master list distance cutoff = 8.10022
  ghost atom cutoff = 8.10022
  binsize = 4.05011, bins = 5 5 5
  1 neighbor lists, perpetual/occasional/extra = 1 0 0
  (1) pair eam/alloy, perpetual
      attributes: half, newton on
      pair build: half/bin/atomonly/newton
      stencil: half/bin/3d/newton
      bin: standard
Per MPI rank memory allocation (min/avg/max) = 4.601 | 4.601 | 4.601 Mbytes
Step PotEng Lx Ly Lz Press Pxx Pyy Pzz c_eatoms 
       0   -490.30867           20           20           20   -530575.56   -530575.56   -530575.56   -530575.56   -490.30867 
      10   -571.95007         19.8         19.8         19.8   -568622.48   -568622.48   -568622.48   -568622.48   -571.95007 
      20   -656.61876         19.6         19.6         19.6    -594526.8    -594526.8    -594526.8    -594526.8   -656.61876 
      30   -742.39715         19.4         19.4         19.4    -608337.7    -608337.7    -608337.7    -608337.7   -742.39715 
      40   -827.59464         19.2         19.2         19.2   -611621.25   -611621.25   -611621.25   -611621.25   -827.59464 
      50   -910.90731           19           19           19   -606895.03   -606895.03   -606895.03   -606895.03   -910.90731 
      60   -991.47377         18.8         18.8         18.8   -596947.16   -596947.16   -596947.16   -596947.16   -991.47377 
      70   -1068.8382         18.6         18.6         18.6   -584244.64   -584244.64   -584244.64   -584244.64   -1068.8382 
      80   -1142.8496         18.4         18.4         18.4   -570519.91   -570519.91   -570519.91   -570519.91   -1142.8496 
      90   -1213.5292         18.2         18.2         18.2   -556526.63   -556526.63   -556526.63   -556526.63   -1213.5292 
     100   -1280.9279           18           18           18    -541935.7    -541935.7    -541935.7    -541935.7   -1280.9279 
     110    -1344.996         17.8         17.8         17.8   -525395.39   -525395.39   -525395.39   -525395.39    -1344.996 
     120   -1405.4871         17.6         17.6         17.6   -504832.49   -504832.49   -504832.49   -504832.49   -1405.4871 
     130    -1461.924         17.4         17.4         17.4   -478035.68   -478035.68   -478035.68   -478035.68    -1461.924 
     140   -1513.6471         17.2         17.2         17.2   -443392.98   -443392.98   -443392.98   -443392.98   -1513.6471 
     150   -1559.9343           17           17           17   -400480.76   -400480.76   -400480.76   -400480.76   -1559.9343 
     160   -1600.1503         16.8         16.8         16.8   -350222.74   -350222.74   -350222.74   -350222.74   -1600.1503 
     170   -1633.8718         16.6         16.6         16.6   -294607.12   -294607.12   -294607.12   -294607.12   -1633.8718 
     180   -1660.9572         16.4         16.4         16.4   -236254.16   -236254.16   -236254.16   -236254.16   -1660.9572 
     190    -1681.571         16.2         16.2         16.2   -178019.41   -178019.41   -178019.41   -178019.41    -1681.571 
     200   -1695.7053           16           16           16   -110044.32   -110044.32   -110044.32   -110044.32   -1695.7053 
     210   -1702.2212         15.8         15.8         15.8   -24120.944   -24120.944   -24120.944   -24120.944   -1702.2212 
     220   -1702.5009    15.750691    15.750691    15.750691 -6.3136035e-09 -6.3017071e-09 -6.2834982e-09 -6.3556052e-09   -1702.5009 
     225   -1702.5009    15.750691    15.750691    15.750691 9.9760034e-10 9.9565806e-10 1.0480995e-09 9.4904349e-10   -1702.5009 
Loop time of 0.0757912 on 4 procs for 225 steps with 250 atoms

95.7% CPU use with 4 MPI tasks x no OpenMP threads

Minimization stats:
  Stopping criterion = energy tolerance
  Energy initial, next-to-last, final = 
        -490.308672124     -1702.50086734     -1702.50086734
  Force two-norm initial, final = 7947.82 9.38431e-12
  Force max component initial, final = 7947.82 9.26823e-12
  Final line search alpha, max atom move = 1 9.26823e-12
  Iterations, force evaluations = 225 238

MPI task timing breakdown:
Section |  min time  |  avg time  |  max time  |%varavg| %total
---------------------------------------------------------------
Pair    | 0.033696   | 0.044023   | 0.056878   |   4.2 | 58.08
Neigh   | 0.000578   | 0.0010425  | 0.0015544  |   1.1 |  1.38
Comm    | 0.0072921  | 0.020476   | 0.03107    |   6.4 | 27.02
Output  | 0.00070906 | 0.00079042 | 0.0009662  |   0.0 |  1.04
Modify  | 0          | 0          | 0          |   0.0 |  0.00
Other   |            | 0.009459   |            |       | 12.48

Nlocal:    62.5 ave 90 max 40 min
Histogram: 1 0 0 0 2 0 0 0 0 1
Nghost:    1281.5 ave 1304 max 1254 min
Histogram: 1 0 0 0 0 0 2 0 0 1
Neighs:    4250 ave 5801 max 2933 min
Histogram: 1 0 0 1 1 0 0 0 0 1

Total # of neighbors = 17000
Ave neighs/atom = 68
Neighbor list builds = 7
Dangerous builds = 0
unfix           1

#  # ----------- Run simulation of bcc phase of Mo --------------------
reset_timestep  0
thermo          10
thermo_style    custom step lx ly lz press pxx pyy pzz pe temp
thermo_modify   format 2 %22.18f
velocity        all create 300 12345 mom yes rot no
dump            1 all custom 50 dumpMoBcc5.out id type x y z
fix             2 all npt temp 300 300 1 iso 0 0 1 drag 1
run             9999
Per MPI rank memory allocation (min/avg/max) = 4.878 | 4.878 | 4.878 Mbytes
Step Lx Ly Lz Press Pxx Pyy Pzz PotEng Temp 
       0  15.750691427550593815    15.750691    15.750691    2639.4016    2590.2474    2562.6356    2765.3216   -1702.5009          300 
      10  15.751490198663303133     15.75149     15.75149     3009.799    2974.4277    2943.8416    3111.1278   -1701.1117    256.82648 
      20  15.754047217161589955    15.754047    15.754047    3433.0849    3435.9473    3408.6743    3454.6331   -1697.9031    157.06525 
      30  15.758507067497266263    15.758507    15.758507    2573.7912    2593.3257    2630.3317    2497.7161   -1695.0026    66.793484 
      40  15.764296372828351167    15.764296    15.764296   -168.36882   -199.91989   -5.7342665    -299.4523   -1694.0949    38.497572 
      50  15.769822172538379590    15.769822    15.769822   -3888.7832   -4015.0834   -3640.0904   -4011.1759   -1695.2788    75.431212 
      60  15.772996852704864068    15.772997    15.772997   -6651.3366    -6833.328   -6391.6921   -6728.9898    -1697.285    138.03333 
      70  15.772321991162504773    15.772322    15.772322   -6821.7101    -6969.969   -6642.4847   -6852.6766   -1698.6694    181.07636 
      80  15.767787062975298085    15.767787    15.767787   -4192.3391    -4258.087   -4130.5471   -4188.3831   -1698.8527     186.5566 
      90  15.760957037307079531    15.760957    15.760957   -52.662907   -66.529325   -50.805289   -40.654106   -1698.2914    169.06954 
     100  15.754219975935168208     15.75422     15.75422    3726.6821    3710.8903    3773.3568    3695.7991   -1697.8344    155.20339 
     110  15.749722492922609618    15.749722    15.749722    5802.3115    5777.0571    5948.0012    5681.8761   -1697.8838    157.19306 
     120  15.748618262104553622    15.748618    15.748618    5886.9005    5880.4783    6106.1621     5674.061   -1698.1145    164.60848 
     130  15.750914674378437397    15.750915    15.750915    4499.4999    4506.6388    4743.8717    4247.9893   -1697.9554    159.67015 
     140  15.755768603776614256    15.755769    15.755769    2325.7137     2285.089    2570.6282    2121.4239   -1697.2694    138.30558 
     150  15.761878383597252906    15.761878    15.761878   -213.06045   -357.50509    21.664111   -303.34036   -1696.5449     115.8745 
     160  15.767741146564844712    15.767741    15.767741   -2853.0065   -3095.9506    -2641.204   -2821.8648   -1696.4539    113.32862 
     170  15.771830430538475554     15.77183     15.77183   -5110.2343   -5408.8929   -4916.6456   -5005.1643   -1697.2094    137.20159 
     180  15.772890529325373166    15.772891    15.772891    -6164.072   -6496.5987    -5947.713   -6047.9042   -1698.3123    171.77199 
     190  15.770398272863015876    15.770398    15.770398   -5267.6534   -5635.1504   -4994.6214   -5173.1882   -1698.9391    191.31575 
     200  15.764956205048878957    15.764956    15.764956    -2412.382   -2779.5258   -2130.3762   -2327.2441   -1698.6321    181.78328 
     210  15.758256264531556923    15.758256    15.758256    1394.1483    1115.1741    1575.4799    1491.7908   -1697.6719    152.19545 
     220  15.752482534895033695    15.752483    15.752483    4606.8418    4476.7574    4636.0121    4707.7558   -1696.8129    126.00781 
     230  15.749437224756118070    15.749437    15.749437     6020.469    6001.4012    5973.8678    6086.1381   -1696.6421    121.15325 
     240  15.749878425038414065    15.749878    15.749878    5366.7081    5355.5316    5385.7955     5358.797     -1697.14    136.81646 
     250  15.753385706852931492    15.753386    15.753386    3240.2952     3177.163    3400.9373    3142.7854    -1697.804    157.50511 
     260  15.758701357631741402    15.758701    15.758701    542.22213     461.9427    790.35447    374.36922   -1698.1455    168.29619 
     270  15.764245426411134687    15.764245    15.764245    -1989.357   -2041.6261   -1762.8589   -2163.5858   -1698.0646    166.18539 
     280  15.768549039817557400    15.768549    15.768549   -3860.0824    -3935.676   -3694.7503    -3949.821    -1697.818    159.04645 
     290  15.770550578385883256    15.770551    15.770551    -4714.567   -4929.3578     -4553.61   -4660.7331   -1697.6934    155.62998 
     300  15.769801403759576175    15.769801    15.769801   -4325.2972   -4726.2304   -4092.0593   -4157.6019   -1697.7156    156.59846 
     310  15.766583614142369640    15.766584    15.766584   -2720.1175   -3216.5574   -2403.1932   -2540.6019   -1697.6593    155.02127 
     320  15.761871849208933583    15.761872    15.761872   -306.00451   -741.99159    30.321804   -206.34376   -1697.3496    145.63315 
     330  15.757078825697639957    15.757079    15.757079    2174.4717    1888.1131    2457.7214    2177.5805   -1696.9212    132.70825 
     340  15.753621032362019605    15.753621    15.753621     3902.448    3732.5799    4116.3876    3858.3766   -1696.7338    127.33879 
     350  15.752457184729916406    15.752457    15.752457    4332.9652     4192.396    4510.8358    4295.6639   -1697.0215    136.65176 
     360  15.753792853363624005    15.753793    15.753793    3424.6383    3270.0093    3594.8364    3409.0693   -1697.6529     156.5354 
     370  15.757070250180195359     15.75707     15.75707    1601.5479    1447.4606    1756.0566    1601.1264   -1698.2388    175.01292 
     380  15.761216150431042848    15.761216    15.761216   -502.98527   -633.36876   -392.60667   -482.98038   -1698.4484    181.92298 
     390  15.765007530846197881    15.765008    15.765008   -2302.6174   -2405.4215   -2251.6793   -2250.7514   -1698.2251    175.49921 
     400  15.767412199860267208    15.767412    15.767412   -3383.4984   -3466.7379   -3374.6692   -3309.0882    -1697.752    161.30973 
     410  15.767829925291120929     15.76783     15.76783   -3517.5428   -3595.2255   -3497.8124   -3459.5905    -1697.263     146.5134 
     420  15.766221480247537556    15.766221    15.766221   -2651.5098   -2751.7385   -2546.2076   -2656.5834   -1696.9002    135.51164 
     430  15.763126573999402424    15.763127    15.763127   -971.01242   -1125.2729    -732.9914    -1054.773   -1696.7152    130.01008 
     440  15.759538158677560915    15.759538    15.759538    1027.9594    824.92139    1354.7821    904.17471   -1696.7439    131.22441 
     450  15.756605322397334135    15.756605    15.756605    2642.4281    2446.2335    2919.5232    2561.5276   -1697.0247    140.36587 
     460  15.755232663807667848    15.755233    15.755233     3267.357     3136.478    3357.4027    3308.1903   -1697.5239    156.30217 
     470  15.755748056351752240    15.755748    15.755748    2719.8915    2663.1965    2595.1211    2901.3568   -1698.0546    173.17796 
     480  15.757812537084003424    15.757813    15.757813    1335.9197    1323.3281    1089.4405    1594.9905   -1698.3366    182.32258 
     490  15.760617286087249767    15.760617    15.760617   -258.59443   -252.06738   -481.95771   -41.758188   -1698.1973    178.42451 
     500  15.763240211566325044     15.76324     15.76324   -1501.4849   -1483.8672   -1580.9502   -1439.6373   -1697.7209    164.08676 
     510  15.764967281609042260    15.764967    15.764967   -2108.8748   -2092.5403   -1991.0309   -2243.0532   -1697.1998    148.32939 
     520  15.765456866287347992    15.765457    15.765457    -2074.039   -2084.5843   -1781.6673   -2355.8654   -1696.9367    140.52191 
     530  15.764744158660436213    15.764744    15.764744   -1546.2729   -1600.8969   -1170.9665   -1866.9553   -1697.0477    144.29639 
     540  15.763152122198032856    15.763152    15.763152   -722.31754   -823.49618   -399.65189   -943.80456   -1697.4002    155.58396 
     550  15.761172004731680119    15.761172    15.761172    195.38354    32.264116      351.244    202.64251   -1697.7263     166.0982 
     560  15.759340546050481180    15.759341    15.759341    999.36426    744.10702    973.93735    1280.0484   -1697.8216    169.48186 
     570  15.758117511196960692    15.758118    15.758118    1489.8512    1139.9497    1384.3064    1945.2974   -1697.6717    165.25289 
     580  15.757773281946793276    15.757773    15.757773     1539.481    1144.9423    1503.0309    1970.4697   -1697.4181    157.76815 
     590  15.758322428115072000    15.758322    15.758322    1178.8662    811.34998    1315.5135    1409.7351   -1697.2069    151.56281 
     600  15.759547178426869252    15.759547    15.759547    605.91869    309.97016    919.20833    588.57757   -1697.0592    147.30962 
     610  15.761111019249096188    15.761111    15.761111    54.972993   -170.39883    454.96479   -119.64698   -1696.9029    142.78719 
     620  15.762688727821210222    15.762689    15.762689   -384.80315    -568.5872   -24.932495   -560.88976   -1696.7494    138.35679 
     630  15.764016444029834929    15.764016    15.764016   -804.11062    -978.5422   -570.15453   -863.63513   -1696.7818    139.70427 
     640  15.764846889504248395    15.764847    15.764847   -1287.4525    -1472.913   -1181.0262   -1208.4183   -1697.1785    152.37958 
     650  15.764911030111429469    15.764911    15.764911    -1693.734   -1887.5287   -1660.8957   -1532.7775   -1697.8435    173.41335 
     660  15.764001630725845260    15.764002    15.764002   -1664.8031   -1850.1193   -1640.6227   -1503.6675   -1698.3813    190.51594 
     670  15.762167823444514170    15.762168    15.762168   -923.54161   -1098.1659    -837.0375   -835.42142   -1698.3934    191.29539 
     680  15.759856313771116731    15.759856    15.759856    400.83622    207.04879    621.42395    374.03592   -1697.8267     174.0997 
     690  15.757826360661933762    15.757826    15.757826    1753.5973    1484.3488    2133.2549    1643.1881   -1697.0492    150.34485 
     700  15.756834426180777342    15.756834    15.756834    2481.2995    2088.1734    2953.3596    2402.3654   -1696.5659    135.67735 
     710  15.757272591453507005    15.757273    15.757273    2250.9969    1744.3869    2690.3564    2318.2472   -1696.6145    137.46812 
     720  15.758989612533529368     15.75899     15.75899     1231.913    704.07776    1548.5213    1443.1399   -1697.0134    150.13083 
     730  15.761390306784900162     15.76139     15.76139   -80.830043   -481.15094    95.673915     142.9869   -1697.3825    161.92149 
     740  15.763715489102416711    15.763715    15.763715   -1208.3672   -1354.1575   -1162.6612   -1108.2828    -1697.487    165.55563 
     750  15.765314538251978149    15.765315    15.765315   -1910.9099   -1798.0271   -1977.6533   -1957.0495   -1697.3954    163.11002 
     760  15.765786675164118691    15.765787    15.765787   -2159.6872   -1932.9432    -2259.393   -2286.7254   -1697.3557    162.24842 
     770  15.765004170192845834    15.765004    15.765004   -1951.5007   -1806.7782   -1943.9329    -2103.791   -1697.5241    167.81257 
     780  15.763115630731380890    15.763116    15.763116    -1204.904   -1248.2451   -1011.9239   -1354.5429   -1697.7818    176.13741 
     790  15.760581586195318238    15.760582    15.760582    94.880177   -98.198503    381.99094   0.84809695   -1697.8259    177.86553 
     800  15.758163030699705587    15.758163    15.758163    1635.1272     1412.787    1822.4808    1670.1139   -1697.4901     167.8321 
     810  15.756730499613194496     15.75673     15.75673    2763.9388    2615.8838    2744.5405     2931.392   -1696.9656    151.92748 
     820  15.756898330917364248    15.756898    15.756898    2858.8549    2820.9607    2722.6554    3032.9486   -1696.6415    142.16344 
     830  15.758687832858676359    15.758688    15.758688    1780.9363    1829.3708    1726.8439    1786.5942   -1696.7208    144.86524 
     840  15.761463580406502416    15.761464    15.761464     23.82678    106.99286    166.21034   -201.72286   -1697.0435    155.16669 
     850  15.764217229396844999    15.764217    15.764217   -1598.6274   -1539.1892   -1324.2839   -1932.4092   -1697.2742    162.70076 
     860  15.766024933691664245    15.766025    15.766025   -2469.8639   -2490.8755   -2224.6085   -2694.1078   -1697.2289    161.69519 
     870  15.766395190024248052    15.766395    15.766395   -2455.8287    -2582.549    -2359.907     -2425.03   -1697.0387    156.14094 
     880  15.765347208308845950    15.765347    15.765347    -1802.284   -1999.6934   -1869.8613   -1537.2972     -1697.01    155.54908 
     890  15.763273885029221333    15.763274    15.763274   -825.54749   -1019.4673   -969.59021   -487.58495   -1697.3052    165.01504 
     900  15.760759218599405429    15.760759    15.760759    291.15048    171.58894    207.90484    493.95766   -1697.7496    179.16637 
     910  15.758462880901380032    15.758463    15.758463    1429.9632    1433.7771    1497.2315    1358.8809   -1697.9597    186.10276 
     920  15.757039107673477929    15.757039    15.757039    2346.4624     2483.066    2536.6227    2019.6984   -1697.6846    177.97587 
     930  15.756991340184754335    15.756991    15.756991    2634.8541    2837.7639    2845.7802    2221.0183   -1697.0613     158.9694 
     940  15.758448886989089743    15.758449    15.758449    1962.4752    2087.3022    2123.0476    1677.0759   -1696.5456    143.21622 
     950  15.760995300077450310    15.760995    15.760995    408.77412    308.34948    530.78204    387.19084   -1696.5349    143.13493 
     960  15.763729923820275047     15.76373     15.76373   -1408.2287   -1774.6786   -1270.2848   -1179.7226   -1697.0073    158.13681 
     970  15.765624224516441743    15.765624    15.765624   -2614.0681   -3135.5655   -2433.2242   -2273.4145   -1697.5392    175.05754 
     980  15.766011505264359016    15.766012    15.766012   -2619.8375   -3114.1308   -2402.0971   -2343.2847   -1697.6901    180.13325 
     990  15.764907995510977656    15.764908    15.764908    -1531.055   -1876.1874   -1277.3817   -1439.5958   -1697.3892    171.12686 
    1000  15.762942604883713571    15.762943    15.762943   -80.224367   -270.80137    201.96587   -171.83759   -1696.9841    158.86898 
    1010  15.760942507914045052    15.760943    15.760943    922.37205    814.55295     1184.408    768.15519   -1696.9026     156.6796 
    1020  15.759482601153401049    15.759483    15.759483    1171.4489    1070.6528    1352.8128    1090.8811   -1697.2248     167.0413 
    1030  15.758716453478463393    15.758716    15.758716    976.38548    835.23278    1088.7399    1005.1838   -1697.5961    178.94248 
    1040  15.758544031354798420    15.758544    15.758544    839.53462    617.81733     984.9893    915.79723   -1697.5893    179.10362 
    1050  15.758884585838597303    15.758885    15.758885    939.35826    602.45404    1205.7816    1009.8392   -1697.1259    165.06656 
    1060  15.759774268082679782    15.759774    15.759774    998.36132     557.1268    1363.0267    1074.9305   -1696.5486    147.45001 
    1070  15.761218213080191219    15.761218    15.761218    617.05434    131.90225     987.7515    731.50927   -1696.3316    140.99228 
    1080  15.762978989086668946    15.762979    15.762979   -281.51953   -745.86838    34.684732   -133.37495   -1696.6906    152.44355 
    1090  15.764541568715689124    15.764542    15.764542   -1321.8262   -1726.6724   -1055.6063   -1183.1999   -1697.3811    174.24693 
    1100  15.765325472507907278    15.765325    15.765325   -1931.9113   -2255.4086   -1690.2255   -1850.0996   -1697.8699    189.83189 
    1110  15.765002635159515165    15.765003    15.765003   -1742.3926   -1971.3636   -1518.2315   -1737.5826   -1697.7849    187.58275 
    1120  15.763697861490179264    15.763698    15.763698   -847.45021   -994.20729   -633.11045    -915.0329   -1697.2295    170.68524 
    1130  15.761929260887416859    15.761929    15.761929     264.4282    158.43838    499.25736    135.58887   -1696.6541    153.14599 
    1140  15.760331618629326300    15.760332    15.760332    1058.8047     957.2049    1328.7345     890.4748   -1696.4441    146.94676 
    1150  15.759357247847074035    15.759357    15.759357    1294.3309    1207.2705    1544.0403    1131.6819   -1696.6314    153.09408 
    1160  15.759141884383200960    15.759142    15.759142    1110.1118    1083.9515    1241.7636    1004.6202   -1696.9464    163.21259 
    1170  15.759581564882694238    15.759582    15.759582    821.47119    873.86036    795.48773    795.06548   -1697.1002    168.33802 
    1180  15.760504966568191776    15.760505    15.760505    593.14839    678.26647    474.88686    626.29185   -1697.0474    167.04871 
    1190  15.761763675005395768    15.761764    15.761764    297.28922    333.69305    212.36416    345.81045   -1697.0175    166.47004 
    1200  15.763166685988014848    15.763167    15.763167   -286.22749   -374.17141   -222.28864   -262.22241   -1697.2627    174.44692 
    1210  15.764369636616187620     15.76437     15.76437   -1117.3059   -1370.0951   -864.01694   -1117.8057   -1697.7236    189.15541 
    1220  15.764907961061947361    15.764908    15.764908   -1761.6206   -2148.1939   -1402.4741   -1734.1938   -1697.9841    197.66029 
    1230  15.764440152463514266     15.76444     15.76444   -1680.4957   -2075.7966   -1392.4042   -1573.2862   -1697.6465     187.5684 
    1240  15.763037068631570392    15.763037    15.763037   -740.62602   -979.04354   -673.19967   -569.63486   -1696.7797    160.98994 
    1250  15.761241903748333115    15.761242    15.761242    563.72688     560.7708    404.70454    725.70529   -1695.9575    135.76105 
    1260  15.759789145962031398    15.759789    15.759789    1463.4797     1609.743    1222.5808    1558.1153   -1695.8054    131.34043 
    1270  15.759181002951617501    15.759181    15.759181    1535.6073    1657.0738    1396.1197    1553.6283   -1696.4631    152.07784 
    1280  15.759458295651352699    15.759458    15.759458    1000.3566    995.32656     1052.417    953.32639   -1697.4571    183.30254 
    1290  15.760322103703497731    15.760322    15.760322    423.46337    327.69275    624.50785    318.18952   -1698.0897    203.35595 
    1300  15.761442174878412814    15.761442    15.761442    149.75009    42.551338    399.91269    6.7862573   -1697.9784    200.33162 
    1310  15.762645791784574811    15.762646    15.762646      31.0371   -76.917674    256.80796   -86.778988   -1697.3113    180.01565 
    1320  15.763841681998400190    15.763842    15.763842   -309.76371    -469.6469   -133.46625   -326.17797   -1696.6435    159.63251 
    1330  15.764822586648389091    15.764823    15.764823   -983.38308   -1225.9098    -840.3612   -883.87827   -1696.4163    152.90683 
    1340  15.765212648524116190    15.765213    15.765213   -1630.0375   -1931.1808    -1469.882   -1489.0497   -1696.6154    159.42113 
    1350  15.764668225319796946    15.764668    15.764668   -1694.2698    -2016.792   -1458.1501   -1607.8673   -1696.8673    167.57595 
    1360  15.763179884004109965     15.76318     15.76318   -912.52359   -1241.9984   -587.66173   -907.91065    -1696.846    167.24353 
    1370  15.761208412276964452    15.761208    15.761208    419.38507    84.163597    771.79413    402.19747   -1696.5832    159.42781 
    1380  15.759510839578208419    15.759511    15.759511    1612.0086    1281.0083    1893.9038    1661.1137   -1696.4151    154.57249 
    1390  15.758753014714582008    15.758753    15.758753    2041.8922     1747.901    2186.4892    2191.2865   -1696.6402    161.92185 
    1400  15.759166101258202275    15.759166    15.759166    1566.9015    1370.9979    1581.5973    1748.1095   -1697.1925    179.42805 
    1410  15.760473234809442289    15.760473    15.760473    583.50027    553.69692    535.34877    661.45512   -1697.6443    193.84005 
    1420  15.762112649772577200    15.762113    15.762113   -316.46699    -170.2011   -348.33374   -430.86615   -1697.5911    192.59893 
    1430  15.763566168540673829    15.763566    15.763566   -803.97787   -584.96023   -766.29033   -1060.6831   -1697.0705     176.8393 
    1440  15.764543340877054334    15.764543    15.764543   -984.22104   -868.09175   -870.39212   -1214.1793    -1696.565    161.51538 
    1450  15.764930131280927128     15.76493     15.76493   -1132.2928   -1249.7047   -976.19189   -1170.9819   -1696.5523    161.46604 
    1460  15.764645916199349074    15.764646    15.764646   -1282.2635   -1630.6451   -1121.7573   -1094.3881   -1697.0485    177.22506 
    1470  15.763629142061212463    15.763629    15.763629   -1115.7541   -1575.8738   -962.65748   -808.73096   -1697.5837    194.21991 
    1480  15.762006733970585159    15.762007    15.762007   -309.21345   -744.82524   -156.11547   -26.699642   -1697.6192    195.71836 
    1490  15.760256851295956437    15.760257    15.760257    996.73088    673.42751    1150.1475    1166.6176   -1697.0381    178.07638 
    1500  15.759115629321538421    15.759116    15.759116    2118.8415    1953.5896    2262.0857    2140.8491   -1696.2829    154.99842 
    1510  15.759194501437733038    15.759195    15.759195    2289.7641    2281.7691    2415.9488    2171.5744   -1695.9815    145.94984 
    1520  15.760563225642490792    15.760563    15.760563    1276.5105    1366.1641    1375.0513     1088.316   -1696.3656    158.15811 
    1530  15.762633341202024084    15.762633    15.762633    -384.2223   -288.19275   -338.43746   -526.03668    -1697.044    179.56878 
    1540  15.764464864513580977    15.764465    15.764465   -1741.6239   -1714.9217   -1756.3126   -1753.6373   -1697.3749    190.26724 
    1550  15.765297362960042804    15.765297    15.765297   -2089.0696    -2163.559   -2112.3075   -1991.3423    -1697.059    180.88009 
    1560  15.764941520333330516    15.764942    15.764942   -1411.2117   -1571.4024   -1350.4837   -1311.7489   -1696.3912    160.49437 
    1570  15.763783918532148220    15.763784    15.763784   -310.50815   -502.28509   -114.27942   -314.95995   -1695.9951    148.50742 
    1580  15.762448570783586632    15.762449    15.762449    493.20504    331.55134    775.51139     372.5524    -1696.304    158.42823 
    1590  15.761396131588835345    15.761396    15.761396    692.96213    578.51645     954.9457    545.42424   -1697.1846      186.152 
    1600  15.760753499056024296    15.760753    15.760753    544.22654     426.2192    730.05825    476.40216   -1697.9979    211.83932 
    1610  15.760452454919306575    15.760452    15.760452    532.25727    339.76173    679.50921    577.50086   -1698.0859    215.02658 
    1620  15.760491159358707591    15.760491    15.760491     848.7539    551.78177    1023.8361    970.64382   -1697.3132    191.45518 
    1630  15.761033806027068493    15.761034    15.761034    1162.5259    774.31267    1390.6381     1322.627   -1696.1978    157.17045 
    1640  15.762228767754271175    15.762229    15.762229    921.22553    483.62725    1186.9549    1093.0944   -1695.5039    135.89976 
    1650  15.763912027721893594    15.763912    15.763912   -99.105928   -500.20209    176.18035    26.703961   -1695.6514    140.75453 
    1660  15.765495573964408038    15.765496    15.765496   -1487.7799   -1732.5704   -1230.8003    -1499.969   -1696.4459    165.76859 
    1670  15.766204352482738216    15.766204    15.766204   -2417.8617   -2431.3753   -2207.3629   -2614.8471   -1697.2999     192.6929 
    1680  15.765536584014853361    15.765537    15.765537   -2236.4175   -2070.9889   -2094.0495   -2544.2141   -1697.6875    205.13532 
    1690  15.763620327038895041     15.76362     15.76362   -947.78882   -770.03323   -866.11117   -1207.2221   -1697.4661    198.64132 
    1700  15.761201039094315135    15.761201    15.761201    790.22422    810.33224    863.24691    697.09349   -1696.8986    181.41259 
    1710  15.759266258740723288    15.759266    15.759266    2112.3011    1899.5151    2248.1833    2189.2049   -1696.4232    167.05065 
    1720  15.758557978256231280    15.758558    15.758558    2450.8675    2026.0508    2682.2409    2644.3108   -1696.3333    164.62161 
    1730  15.759255534618311856    15.759256    15.759256    1778.7058    1215.0549    2075.7775    2045.2851   -1696.5949    173.07276 
    1740  15.760965143306655989    15.760965    15.760965    539.91396   -51.703631    849.08171    822.36381   -1696.9332    183.92326 
    1750  15.762974263819854670    15.762974    15.762974   -644.76042   -1125.3964   -363.06438   -445.82049   -1697.0738    188.68286 
    1760  15.764603260469190360    15.764603    15.764603   -1326.7082   -1595.1362    -1094.744   -1290.2444    -1696.922    184.37907 
    1770  15.765460106936913576     15.76546     15.76546   -1412.3726   -1491.0189    -1227.599      -1518.5    -1696.595    174.61568 
    1780  15.765494728118738976    15.765495    15.765495   -1109.3832   -1133.2053   -929.76543   -1265.1788   -1696.3364    166.93922 
    1790  15.764882196281353899    15.764882    15.764882   -722.01492    -814.6986    -484.6372   -866.70897    -1696.347    167.60548 
    1800  15.763851597346967282    15.763852    15.763852   -423.77245   -589.06465   -104.77283   -577.47987   -1696.6285    176.69668 
    1810  15.762588003387374869    15.762588    15.762588   -158.86543   -303.90147    185.26194   -357.95676   -1696.9767    187.88245 
    1820  15.761260220089440054     15.76126     15.76126    245.57099    192.98622    519.34883    24.377919   -1697.1343    193.17272 
    1830  15.760111070542439649    15.760111    15.760111    851.85147    866.86332    1012.2921    676.39903   -1696.9743    188.60713 
    1840  15.759485228709294802    15.759485    15.759485    1464.4454    1458.4495    1554.1038     1380.783   -1696.5957    177.23597 
    1850  15.759716245129030909    15.759716    15.759716    1703.8757    1615.1018    1782.4447    1714.0805   -1696.2644    167.29636 
    1860  15.760917436092203303    15.760917    15.760917    1278.0551    1105.7754    1363.4597    1364.9301    -1696.211    165.95033 
    1870  15.762826754993408684    15.762827    15.762827    245.74945    16.113942    347.32914    373.80526   -1696.4443    173.52309 
    1880  15.764848308869979121    15.764848    15.764848   -948.84935   -1200.4256   -785.10302   -861.01946   -1696.7514    183.43909 
    1890  15.766305276948191505    15.766305    15.766305    -1736.583   -1942.6131   -1464.3666   -1802.7694   -1696.8689    187.49982 
    1900  15.766756501711110872    15.766757    15.766757   -1817.3179   -1884.1534   -1474.4366   -2093.3637   -1696.6886    182.29406 
    1910  15.766160598994025221    15.766161    15.766161   -1350.2661   -1236.8462   -1074.1013   -1739.8508   -1696.3644    172.58158 
    1920  15.764787273610771479    15.764787    15.764787   -742.92664   -529.61017   -668.00753   -1031.1622   -1696.2175     168.3499 
    1930  15.762992853528736248    15.762993    15.762993   -253.88831   -99.792446   -404.26361   -257.60886   -1696.4598    176.21745 
    1940  15.761076356046922697    15.761076    15.761076    199.85061    175.33664   -90.271905     514.4871   -1696.9737    192.55437 
    1950  15.759320809361836879    15.759321    15.759321    875.27267    658.48572    582.32944    1385.0028   -1697.3811    205.62773 
    1960  15.758124464351316973    15.758124    15.758124    1810.1642    1471.7955    1649.3816    2309.3154   -1697.3562    205.29696 
    1970  15.758007958438094320    15.758008    15.758008    2574.0662    2204.3158    2640.5494    2877.3336   -1696.9163    192.04313 
    1980  15.759370224764229107     15.75937     15.75937    2484.7087    2131.6455    2811.5783    2510.9023   -1696.4421    177.63718 
    1990  15.762118340977650632    15.762118    15.762118    1176.9446    842.08925    1707.0785    981.66599   -1696.3478    174.98655 
    2000  15.765481261472972463    15.765481    15.765481   -966.94093   -1279.0499   -388.90469   -1232.8682   -1696.6481    184.66192 
    2010  15.768237345104427760    15.768237    15.768237   -2934.1611   -3180.4364   -2506.2897   -3115.7572   -1696.8984    192.88883 
    2020  15.769286146834613049    15.769286    15.769286   -3699.5313   -3829.5373   -3563.5043   -3705.5523   -1696.6403    185.30175 
    2030  15.768219298175120358    15.768219    15.768219   -2891.1835   -2922.1966   -3027.9007    -2723.453   -1695.8898    162.29321 
    2040  15.765519553973383893     15.76552     15.76552   -1014.9987    -1041.913   -1222.2816   -780.80166   -1695.1847    140.62854 
    2050  15.762266944644538924    15.762267    15.762267    919.56041    816.81529    900.38695     1041.479   -1695.1695    140.44391 
    2060  15.759567777420823376    15.759568    15.759568    2079.2876    1913.3001    2377.9609    1946.6019   -1696.0481    168.10473 
    2070  15.758086681824604369    15.758087    15.758087    2261.5678    2101.1375    2806.4968    1877.0693   -1697.3382    208.60923 
    2080  15.757932813615779466    15.757933    15.757933    1849.0646      1723.28    2469.4973    1354.4164   -1698.1926    235.60963 
    2090  15.758872097677770086    15.758872    15.758872    1378.1392    1234.2036    1968.5429    931.67121   -1698.0551    231.79589 
    2100  15.760621230110093194    15.760621    15.760621    1031.0669     788.9439    1590.3323    713.92464   -1697.0795    201.90274 
    2110  15.762949041212117152    15.762949    15.762949    521.35658    155.89007    1045.7165    362.46317   -1695.9702    167.78714 
    2120  15.765528883941405169    15.765529    15.765529   -481.86288   -926.36324   -70.908076   -448.31733   -1695.4165     150.8975 
    2130  15.767771487949683973    15.767771    15.767771   -1842.5793   -2297.1543   -1617.4972   -1613.0863   -1695.5996    156.91977 
    2140  15.768911853913543553    15.768912    15.768912   -2904.7156   -3315.0632   -2811.8803   -2587.2032   -1696.1593     174.6716 
    2150  15.768374624290251163    15.768375    15.768375   -2974.6728   -3296.8146   -2859.0918   -2768.1122   -1696.6031    188.80215 
    2160  15.766152436079249100    15.766152    15.766152   -1883.2067    -2077.772   -1634.8807   -1936.9673   -1696.7432    193.46608 
    2170  15.762890817546331590    15.762891    15.762891   -105.62746   -167.36372    254.21854   -403.73721   -1696.7525    194.10513 
    2180  15.759616379088686955    15.759616    15.759616    1621.7767    1660.5944    1982.0302    1222.7056   -1696.8556    197.73486 
    2190  15.757319728544427306     15.75732     15.75732    2760.9728    2857.8971    3016.2173    2408.8041   -1697.0306    203.63872 
    2200  15.756647033461636198    15.756647    15.756647    3116.1909     3215.253    3237.0236    2896.2962   -1697.0311    204.08377 
    2210  15.757783530941406269    15.757784    15.757784    2687.6292    2717.7075     2705.782    2639.3981   -1696.6742    193.34311 
    2220  15.760453868074574046    15.760454    15.760454    1536.9733    1448.1129    1478.2923    1684.5146   -1696.0892    175.45679 
    2230  15.763967394299672975    15.763967    15.763967   -154.70571   -363.08904   -267.47091    166.44283   -1695.6614    162.46385 
    2240  15.767335480995825492    15.767335    15.767335   -1970.9211   -2255.9847   -2066.4925   -1590.2862   -1695.6989    164.00023 
    2250  15.769519683205626137     15.76952     15.76952   -3285.5007    -3581.023   -3259.7745   -3015.7045   -1696.1476    178.35768 
    2260  15.769790887411206270    15.769791    15.769791   -3504.8876   -3730.0355   -3316.8253   -3467.8021   -1696.6316    193.77105 
    2270  15.768058462416654208    15.768058    15.768058   -2428.1826   -2499.0571   -2174.5995   -2610.8912   -1696.7784    198.65137 
    2280  15.764968003874709979    15.764968    15.764968   -467.53162   -347.71899   -323.08138   -731.79448   -1696.5422    191.64255 
    2290  15.761652381270241818    15.761652    15.761652    1497.2454    1738.2511    1440.3766    1313.1083   -1696.2405    182.67175 
    2300  15.759228572810828339    15.759229    15.759229     2603.142    2805.1512    2411.8469    2592.4279   -1696.2471    183.31241 
    2310  15.758317425149082069    15.758317    15.758317    2530.9555    2559.2228    2343.4673    2690.1765   -1696.5989    194.64418 
    2320  15.758872555967634810    15.758873    15.758873    1647.4623    1504.2581      1552.56    1885.5688   -1696.9348    205.44976 
    2330  15.760387035006029777    15.760387    15.760387    624.70652    434.70619    644.74193    794.67143     -1696.87    203.81652 
    2340  15.762267242134907264    15.762267    15.762267   -97.650367    -204.6977    30.944493   -119.19789   -1696.3957     189.4686 
    2350  15.764081381009756200    15.764081    15.764081   -529.29155   -517.12655   -322.81104   -747.93707   -1695.8779    173.74961 
    2360  15.765563505458860760    15.765564    15.765564   -899.70518   -832.24776   -665.96531   -1200.9025   -1695.7082    168.82461 
    2370  15.766495981719378605    15.766496    15.766496   -1277.4595   -1271.3648   -1041.4087   -1519.6051   -1695.9628    177.08288 
    2380  15.766675430198556995    15.766675    15.766675   -1440.1318   -1596.6398   -1168.3295   -1555.4263    -1696.351    189.49906 
    2390  15.766031341700934121    15.766031    15.766031   -1116.5433   -1433.8735     -774.867   -1140.8894   -1696.4972    194.40774 
    2400  15.764765604785095476    15.764766    15.764766   -339.19443   -678.09048    14.748461   -354.24127    -1696.313    189.05703 
    2410  15.763324659172521791    15.763325    15.763325    475.53359    284.30647     712.1416     430.1527   -1696.0952    182.66407 
    2420  15.762165696440522566    15.762166    15.762166    834.50348    829.22291    901.52192    772.76562   -1696.2335    187.33542 
    2430  15.761489702161199489     15.76149     15.76149    621.29589    662.56486    634.81331    566.50949   -1696.7922    205.07847 
    2440  15.761184506825454577    15.761185    15.761185    234.55751    125.42214    382.27152    195.97887   -1697.3753    223.60326 
    2450  15.761045410458178750    15.761045    15.761045     218.3818   -117.21927    571.85117    200.51351   -1697.4247    225.57112 
    2460  15.761067779210886641    15.761068    15.761068    703.29426    247.55963    1141.5682    720.75493   -1696.7116    203.83481 
    2470  15.761510681278007695    15.761511    15.761511     1218.348    817.83777    1560.2202    1276.9861   -1695.6042    169.79163 
    2480  15.762637079343168267    15.762637    15.762637    1105.5319    850.92687    1300.4832    1165.1857   -1694.8427    146.42052 
    2490  15.764358074180510272    15.764358    15.764358    132.58738   -16.849496    278.63118    135.98047   -1694.9608    150.35484 
    2500  15.766113643704013469    15.766114    15.766114   -1263.1602   -1423.4575   -1042.9932   -1323.0299   -1695.8643    178.74713 
    2510  15.767121114455379782    15.767121    15.767121   -2280.9804   -2564.2709   -1932.6579   -2346.0123   -1696.9382     212.5102 
    2520  15.766821910543425744    15.766822    15.766822   -2318.1161   -2777.0038   -1864.7541   -2312.5904   -1697.5337    231.43148 
    2530  15.765215816382015745    15.765216    15.765216   -1332.3232   -1931.6646   -834.96073   -1230.3443   -1697.3847    227.20921 
    2540  15.762880273588546487     15.76288     15.76288    210.37875   -416.44751    694.76629    352.81747   -1696.6771    205.62883 
    2550  15.760702131976756846    15.760702    15.760702    1649.4848    1132.7344     2095.458     1720.262   -1695.8385    179.97395 
    2560  15.759498513538421349    15.759499    15.759499    2431.9707    2131.2459    2844.4661    2320.2001   -1695.2701    162.67671 
    2570  15.759702087017078753    15.759702    15.759702    2295.2391    2247.7623    2681.4466    1956.5084   -1695.1694    159.84749 
    2580  15.761216370553171373    15.761216    15.761216    1332.1841    1475.4082    1686.4402    834.70374   -1695.4903    170.09119 
    2590  15.763475829982491305    15.763476    15.763476   -54.275997    118.69527    267.39091   -548.91417   -1696.0283    187.12574 
    2600  15.765680524391555650    15.765681    15.765681   -1320.0326   -1304.6801   -1020.4927   -1634.9249   -1696.5521    203.80217 
    2610  15.767107462779712534    15.767107    15.767107    -2017.975    -2267.324   -1763.0344   -2023.5665   -1696.8892    214.71498 
    2620  15.767365168359145144    15.767365    15.767365   -1966.8496   -2452.4065    -1836.533   -1611.6092   -1696.9472    216.94024 
    2630  15.766494780844178436    15.766495    15.766495   -1286.1994   -1874.1873   -1344.9705   -639.44046   -1696.7303    210.58946 
    2640  15.764897716796316018    15.764898    15.764898   -307.80342   -834.35134   -503.19529    414.13638   -1696.3528    199.23433 
    2650  15.763142381478452592    15.763142    15.763142    586.70058    225.18128    430.08941    1104.8311   -1695.9922    188.40466 
    2660  15.761744426066613300    15.761744    15.761744    1124.9932    919.02902    1180.6637     1275.287   -1695.7985    182.75429 
    2670  15.761011698022823424    15.761012    15.761012    1231.1834    1117.4061    1506.5291    1069.6149    -1695.833    184.18621 
    2680  15.761002135439653671    15.761002    15.761002    1007.2535    958.45818    1317.4621    745.84014   -1696.0476    191.20736 
    2690  15.761582437616606711    15.761582    15.761582    630.27565    660.52939    765.75748    464.54008   -1696.3049    199.56166 
    2700  15.762529615555253670     15.76253     15.76253    246.56165    354.25195    151.79376    233.63923   -1696.4627    204.84149 
    2710  15.763615890522380880    15.763616    15.763616   -76.047535    40.765853   -281.36382    12.455359   -1696.4649    205.29841 
    2720  15.764649043939666484    15.764649    15.764649   -338.96885   -328.59653   -470.06949   -218.24055    -1696.344    201.92768 
    2730  15.765473520372470517    15.765474    15.765474     -565.209   -725.54785   -504.81173   -465.26741   -1696.1629    196.68069 
    2740  15.765958708328323468    15.765959    15.765959   -753.70716     -1031.55    -509.1922   -720.37927   -1695.9885    191.63063 
    2750  15.766000363751107471       15.766       15.766   -858.17974   -1132.2604   -514.67057   -927.60827   -1695.8835     188.7265 
    2760  15.765547519018912936    15.765548    15.765548   -790.55607   -975.42877   -434.08489   -962.15453    -1695.867    188.55948 
    2770  15.764651894057092107    15.764652    15.764652   -460.78541   -551.92579   -143.75052   -686.67991   -1695.8846     189.4533 
    2780  15.763514360041657625    15.763514    15.763514    122.10105    85.769349    375.56395   -95.030136   -1695.8638    189.15991 
    2790  15.762471969107554770    15.762472    15.762472    753.74994    731.29768    943.85545     586.0967   -1695.8136     187.9648 
    2800  15.761878916146734753    15.761879    15.761879    1107.5028    1047.2029    1270.8655    1004.4402   -1695.8475      189.385 
    2810  15.761926124690070594    15.761926    15.761926    970.66618    806.87188    1171.7937      933.333   -1696.0743    196.79373 
    2820  15.762527877702648738    15.762528    15.762528    424.51491    122.68709     714.9156    435.94204   -1696.4485    208.79236 
    2830  15.763371167153920283    15.763371    15.763371   -204.93424   -597.94405    178.69246   -195.55112   -1696.7527     218.6386 
    2840  15.764099075055565180    15.764099    15.764099   -576.80447   -930.84961   -147.25548   -652.30831   -1696.7546    219.11009 
    2850  15.764500940275192775    15.764501    15.764501   -555.44124   -739.44278   -157.46348   -769.41746   -1696.3876    208.11125 
    2860  15.764587727866285150    15.764588    15.764588   -260.47858    -244.1381    25.175755    -562.4734   -1695.8119    190.59629 
    2870  15.764524997641654380    15.764525    15.764525    58.542144    182.48053    186.05664   -192.91073   -1695.3354    176.13412 
    2880  15.764491164429546899    15.764491    15.764491    171.92678    249.51674     180.9683    85.295306   -1695.2483    173.75505 
    2890  15.764547574885305892    15.764548    15.764548   -14.474747   -101.40827    18.263633    39.720395   -1695.6504    186.57609 
    2900  15.764589802208300640     15.76459     15.76459   -366.10045   -617.48734   -153.00891   -327.80509   -1696.3512    208.71359 
    2910  15.764426910967513251    15.764427    15.764427    -571.1841    -879.8564   -152.21702   -681.47888   -1696.9277    227.02282 
    2920  15.763955014791770637    15.763955    15.763955   -364.08804   -614.04129    116.61509   -594.83792    -1696.968    228.69382 
    2930  15.763299933712445977      15.7633      15.7633    231.20112    98.509545    578.91614    16.177671   -1696.3997    211.44743 
    2940  15.762796094637190336    15.762796    15.762796    839.79241    834.47944    949.57172    735.32606   -1695.6136     187.4019 
    2950  15.762774832696408112    15.762775    15.762775    979.97125    1084.7105    867.36537    987.83791   -1695.1842    174.39217 
    2960  15.763302347573850071    15.763302    15.763302    479.25323     632.4976    233.54472    571.71736   -1695.3964    181.29884 
    2970  15.764093206016381643    15.764093    15.764093   -317.06263    -210.6926   -578.84578   -161.64951   -1696.0224    201.08924 
    2980  15.764705305546673486    15.764705    15.764705   -809.58554   -795.64725   -980.51793   -652.59144   -1696.5402    217.56187 
    2990  15.764868373580037897    15.764868    15.764868   -664.92128   -700.95837   -692.92867   -600.87681   -1696.5619    218.64101 
    3000  15.764663191206258475    15.764663    15.764663   -101.02556   -144.70374    -8.343791   -150.02914   -1696.1082    204.93822 
    3010  15.764398717758947299    15.764399    15.764399    325.44515    216.96153    487.78293    271.59098   -1695.5574    188.18993 
    3020  15.764307400545771287    15.764307    15.764307    237.14138   -46.238939    445.62461    312.03846   -1695.3349    181.61253 
    3030  15.764341150923208090    15.764341    15.764341   -232.76971   -700.66315    17.509809   -15.155804   -1695.5676    189.17707 
    3040  15.764247183230445160    15.764247    15.764247   -575.95644   -1081.8235   -303.66248   -342.38332    -1695.987     202.5563 
    3050  15.763847247783317584    15.763847    15.763847   -367.04991   -727.73353   -114.96964   -258.44657   -1696.1948    209.38669 
    3060  15.763266662874226398    15.763267    15.763267    340.29094    198.87218    524.68009    297.32055   -1696.0513    205.31406 
    3070  15.762898877559964106    15.762899    15.762899     1031.868    1064.2375    1120.4243    910.94226   -1695.7967    197.77951 
    3080  15.763119510525594791     15.76312     15.76312    1142.3715    1271.7508     1146.886    1008.4777   -1695.7998    198.23511 
    3090  15.763975925218176144    15.763976    15.763976    491.09956    670.91982    460.36054    342.01833   -1696.1862    210.59363 
    3100  15.765092863308829862    15.765093    15.765093   -572.01543   -376.76278    -591.4751   -747.80842   -1696.6801    226.32724 
    3110  15.765873619376517212    15.765874    15.765874   -1382.1252    -1239.506   -1379.2541   -1527.6154   -1696.8112    230.81824 
    3120  15.765872201921052209    15.765872    15.765872   -1409.9221   -1414.2468   -1375.5744   -1439.9452   -1696.3205    215.97916 
    3130  15.765084018509238462    15.765084    15.765084   -643.19767    -859.6498   -525.40437   -544.53883    -1695.414    188.16994 
    3140  15.763945893974140589    15.763946    15.763946    399.66309   -5.8887952    645.22121    559.65685    -1694.639    164.41062 
    3150  15.763043750226827910    15.763044    15.763044    1060.0585    582.53506    1378.4684    1219.1719    -1694.496     160.2709 
    3160  15.762747445790843415    15.762747    15.762747    1028.5763    616.98361    1283.7437    1185.0016   -1695.0905    179.04642 
    3170  15.763041588739412191    15.763042    15.763042    529.37609    250.60617    629.60977    707.91232   -1696.0663    209.70599 
    3180  15.763648590352403289    15.763649    15.763649    36.299858   -134.06179    1.4922239    241.46914   -1696.8583    234.71009 
    3190  15.764287072567533698    15.764287    15.764287   -193.33199   -319.92831   -285.52108    25.453433   -1697.0939    242.46683 
    3200  15.764814934466212293    15.764815    15.764815   -276.83373   -419.15222   -366.02169   -45.327262   -1696.8272    234.61659 
    3210  15.765173686425889343    15.765174    15.765174   -414.21173   -613.69094   -455.42792   -173.51634   -1696.3893    221.41889 
    3220  15.765286072946439688    15.765286    15.765286   -572.64356   -845.84496   -491.84345   -380.24227   -1696.0224    210.39846 
    3230  15.765073651003573829    15.765074    15.765074   -528.52192   -855.27248   -251.31557    -478.9777   -1695.7012     200.7717 
    3240  15.764573018308466246    15.764573    15.764573   -167.60161   -474.58647    271.90989   -300.12825   -1695.3042    188.77457 
    3250  15.763992233446991520    15.763992    15.763992    339.47228    155.14308    761.81063    101.46312   -1694.8816    175.97276 
    3260  15.763614884060260124    15.763615    15.763615    672.98483    648.41335    881.41472    489.12642   -1694.6933    170.43514 
    3270  15.763623511356801288    15.763624    15.763624    616.68966    660.74678    571.10336    618.21883    -1694.984    179.77934 
    3280  15.763981488895517202    15.763981    15.763981    208.82237    164.95876    66.650631    394.85773   -1695.7178     202.9124 
    3290  15.764456700211770368    15.764457    15.764457   -294.41939   -525.50313   -313.62991   -44.125116   -1696.5241    228.34426 
    3300  15.764767458189988147    15.764767    15.764767   -571.69891   -970.54091    -357.7183   -386.83752   -1696.9356    241.54806 
    3310  15.764762951724897277    15.764763    15.764763   -427.93482   -882.40328   -38.867631   -362.53356   -1696.7125    235.04206 
    3320  15.764527984637005886    15.764528    15.764528    45.215664   -316.71881    448.84729    3.5185131   -1695.9922    213.06315 
    3330  15.764326247306932771    15.764326    15.764326    487.30936    345.82294    748.73771    367.36744   -1695.2132    189.22051 
    3340  15.764397896548356215    15.764398    15.764398    517.35611    639.22197    563.31793    349.52842   -1694.8616    178.61745 
    3350  15.764752283030128766    15.764752    15.764752    59.574289    366.48178   -66.945773   -120.81314   -1695.1232    187.05991 
    3360  15.765133151010834567    15.765133    15.765133    -537.8427   -208.74066   -702.33146   -702.45599   -1695.7206    205.96058 
    3370  15.765214115835558317    15.765214    15.765214   -769.91245   -595.75231   -823.21425    -890.7708   -1696.1654    220.15465 
    3380  15.764873510642285481    15.764874    15.764874   -433.82441    -543.6698   -309.03013   -448.77331   -1696.2056    221.79393 
    3390  15.764300608663827319    15.764301    15.764301    175.79485   -243.36175    428.24946    342.49683   -1696.0085    216.06223 
    3400  15.763832091442743888    15.763832    15.763832    553.50706   -67.712203    827.39854    900.83484    -1695.921    213.72256 
    3410  15.763676749067720095    15.763677    15.763677    461.11455   -155.11064    677.82842    860.62587   -1696.0809    219.06083 
    3420  15.763787271569208670    15.763787    15.763787    122.98329     -292.211    261.87189    399.28897   -1696.2778    225.55716 
    3430  15.763982410132449274    15.763982    15.763982   -40.909333   -184.34533    41.238755    20.378571   -1696.1879     223.1469 
    3440  15.764173478708917386    15.764173    15.764173      143.844    206.04106     206.4785     19.01245   -1695.7116    208.72358 
    3450  15.764456814810960950    15.764457    15.764457    433.51208    567.36008    516.39558     216.7806    -1695.083    189.54026 
    3460  15.764980051086604718     15.76498     15.76498    409.88593    473.70025    543.98462    211.97292   -1694.6968    177.85518 
    3470  15.765715807194489173    15.765716    15.765716   -113.93093    -219.7194    75.510528   -197.58391   -1694.8247    182.13722 
    3480  15.766364679929111503    15.766365    15.766365   -886.06274   -1163.2763   -665.68903   -829.22289   -1695.4148    200.80027 
    3490  15.766499998067608601      15.7665      15.7665   -1368.4787   -1716.0786   -1156.2101   -1233.1476   -1696.0994    222.43454 
    3500  15.765866349075196240    15.765866    15.765866   -1140.9259   -1437.6006   -969.94664   -1015.2305   -1696.4344      233.228 
    3510  15.764608310225098009    15.764608    15.764608   -226.65256   -437.23004   -85.865787   -156.86186   -1696.2214    227.00051 
    3520  15.763250286509366660     15.76325     15.76325    901.20752    717.53064    1069.3738     916.7181   -1695.6624    210.02083 
    3530  15.762426244433983769    15.762426    15.762426    1608.5383    1387.1292    1841.4037    1597.0819   -1695.1984    195.97273 
    3540  15.762524731857137539    15.762525    15.762525    1495.5708    1220.7202    1780.3961     1485.596   -1695.1508    194.82452 
    3550  15.763470209542322920     15.76347     15.76347    649.01716    324.47224     972.1325    650.44673   -1695.4795    205.35895 
    3560  15.764778469833897745    15.764778    15.764778    -406.4646   -789.50023   -41.773613   -388.11996   -1695.8648    217.68764 
    3570  15.765853486256855120    15.765853    15.765853    -1058.804   -1473.6929    -675.9021   -1026.8171   -1696.0064    222.47702 
    3580  15.766327661736587729    15.766328    15.766328   -1036.9535   -1365.3459   -709.90668   -1035.6079   -1695.8522    218.07534 
    3590  15.766211338934628117    15.766211    15.766211    -554.3643   -653.59981   -390.75841   -618.73468   -1695.5934    210.40507 
    3600  15.765773908772041878    15.765774    15.765774   -72.999791    77.674292   -146.72241   -149.95125     -1695.49    207.54867 
    3610  15.765286412304597263    15.765286    15.765286    67.350384    327.49063   -205.95572    80.516245   -1695.6696    213.48332 
    3620  15.764833458753745532    15.764833    15.764833   -109.85677    87.396004   -433.35263    16.386335   -1696.0182    224.67861 
    3630  15.764327530505973129    15.764328    15.764328    -264.9631   -200.56139   -447.48178   -146.84613    -1696.244    232.07566 
    3640  15.763695981769924259    15.763696    15.763696   -51.502416   -92.107203     44.83219   -107.23224   -1696.0905    227.69022 
    3650  15.763067747225228743    15.763068    15.763068    551.09196    455.65387    915.66031     281.9617   -1695.5455    211.13056 
    3660  15.762779573297187596     15.76278     15.76278    1182.4318     1064.489    1638.9236     843.8828   -1694.8879    191.04662 
    3670  15.763173794915271486    15.763174    15.763174    1356.5489    1245.3775    1667.0218    1157.2476   -1694.5202    179.92756 
    3680  15.764329574699672776     15.76433     15.76433     807.5589    731.46847    833.55566    857.65257   -1694.6883     185.4379 
    3690  15.765921426130297789    15.765921    15.765921    -286.4309   -352.02435   -474.72819    -32.54018   -1695.3013    204.80279 
    3700  15.767326547952450255    15.767327    15.767327   -1366.5929   -1505.9026   -1540.3101   -1053.5661   -1695.9976    226.81488 
    3710  15.767939976072245400     15.76794     15.76794   -1852.3237   -2119.4813   -1806.6977   -1630.7921   -1696.4003    239.73475 
    3720  15.767497629743655096    15.767498    15.767498   -1521.0399   -1857.1403   -1217.9642   -1488.0152   -1696.3552    238.73025 
    3730  15.766198645685935986    15.766199    15.766199   -597.76657    -849.4672   -158.47533   -785.35718   -1695.9808    227.47097 
    3740  15.764576409732953266    15.764576    15.764576    449.65789    417.75115    858.38956    72.832969   -1695.5295    213.81882 
    3750  15.763230767294693635    15.763231    15.763231    1176.5682    1363.5144    1445.6591    720.53103   -1695.2167    204.46369 
    3760  15.762573779549303055    15.762574    15.762574    1339.9347    1588.4746    1437.9164     993.4129   -1695.1406    202.44459 
    3770  15.762693250193933636    15.762693    15.762693    971.98604    1060.6766    933.75934    921.52219   -1695.2688    206.76432 
    3780  15.763375324285016532    15.763375    15.763375    349.56588    129.54892    279.01549    640.13322   -1695.4575    212.96537 
    3790  15.764263293596169291    15.764263    15.764263   -173.05436   -673.24187   -126.17274    280.25152   -1695.5491    216.16782 
    3800  15.765057456851229389    15.765057    15.765057   -376.07363   -958.58135   -87.902485   -81.737074   -1695.4989    214.97252 
    3810  15.765637599338049313    15.765638    15.765638   -297.28081   -731.27088    224.49489   -385.06643    -1695.392    212.01211 
    3820  15.766040656885298432    15.766041    15.766041    -180.8805   -359.06384    395.98508   -579.56272   -1695.3477    210.98912 
    3830  15.766326343273682653    15.766326    15.766326   -244.89191   -225.71159    154.89839   -663.86254    -1695.412    213.33832 
    3840  15.766460430015007077     15.76646     15.76646   -450.49607   -366.65292   -325.45782   -659.37747   -1695.5085    216.69072 
    3850  15.766336701668272724    15.766337    15.766337   -549.16877   -480.19602   -599.01194   -568.29835   -1695.5016    216.83492 
    3860  15.765909277966393631    15.765909    15.765909   -374.34015   -310.72259    -413.3996   -398.89825   -1695.3624    212.86452 
    3870  15.765280574734370944    15.765281    15.765281    -22.39406    47.614591    85.818518   -200.61529   -1695.2495    209.70884 
    3880  15.764648315299661263    15.764648    15.764648    260.85699    271.18642    558.59967   -47.215127   -1695.3745     213.9461 
    3890  15.764172009722905443    15.764172    15.764172    327.91927    171.57611    783.21866    28.963038   -1695.7901    227.22129 
    3900  15.763893539140241273    15.763894    15.763894    262.38403   -110.96286     802.7169    95.398041   -1696.2955    243.30528 
    3910  15.763782341175257784    15.763782    15.763782    266.86491   -267.29562    795.64311    272.24724   -1696.5318    251.04477 
    3920  15.763843407693897802    15.763843    15.763843    426.40001   -138.32748    827.53694    589.99055   -1696.2308    242.09166 
    3930  15.764161280793132391    15.764161    15.764161    603.63914    131.64345    789.62893    889.64503   -1695.4484    218.15409 
    3940  15.764824255171856038    15.764824    15.764824    559.92901    237.20396     553.4233    889.15977   -1694.5704    191.20364 
    3950  15.765794139750736846    15.765794    15.765794     157.4477   -30.881957    110.60542    392.61963   -1694.0687    175.90726 
    3960  15.766832738753432608    15.766833    15.766833   -524.73869    -638.4938   -421.46293   -514.25934   -1694.1987    180.23249 
    3970  15.767550641703380165    15.767551    15.767551   -1203.8033   -1308.4007   -862.95975   -1440.0496   -1694.8527    200.86589 
    3980  15.767570467013335644     15.76757     15.76757   -1510.4158   -1636.7418   -1011.4164    -1883.089   -1695.6501    225.98773 
    3990  15.766735033325481652    15.766735    15.766735   -1182.6196   -1320.2381    -693.1928   -1534.4278   -1696.1768    242.71714 
    4000  15.765248741848077785    15.765249    15.765249   -261.11078   -383.75044    93.334765   -492.91666   -1696.2091    244.10578 
    4010  15.763644798602388875    15.763645    15.763645    856.83791    781.59693    1025.1273    763.78945    -1695.812    232.16587 
    4020  15.762556053926847000    15.762556    15.762556    1623.4848    1630.8852    1580.0352     1659.534   -1695.2725    215.78952 
    4030  15.762408774156519087    15.762409    15.762409    1686.8699    1762.9207    1472.5261    1825.1629    -1694.907    204.77751 
    4040  15.763228224798108812    15.763228    15.763228    1076.3615    1113.6369     877.2576    1238.1901   -1694.8707     203.9576 
    4050  15.764658089785132944    15.764658    15.764658    130.49117   -21.952088    209.50506    203.92053   -1695.0972    211.31396 
    4060  15.766153964547177324    15.766154    15.766154   -721.58583   -1145.0931   -223.44999   -796.21438    -1695.389    220.73275 
    4070  15.767227333769964659    15.767227    15.767227   -1182.8388   -1809.9319   -405.22646    -1333.358    -1695.577    226.95047 
    4080  15.767615567571278135    15.767616    15.767616   -1179.5871   -1818.0361   -480.93267   -1239.7925   -1695.6209    228.68992 
    4090  15.767324668057993264    15.767325    15.767325    -823.6691   -1275.0957   -499.04731   -696.86426   -1695.5801     227.7852 
    4100  15.766563091804975727    15.766563    15.766563   -337.02791   -508.76713   -397.24917   -105.06743   -1695.5204    226.28922 
    4110  15.765614398348152037    15.765614    15.765614    79.254786    146.52408   -145.73812    236.97839   -1695.4654    224.93745 
    4120  15.764723671867498567    15.764724    15.764724    361.04495    541.13513    195.11195    346.88776   -1695.4089    223.53903 
    4130  15.764058141275111069    15.764058    15.764058    542.07172    702.17849    505.90063    418.13603   -1695.3346    221.58646 
    4140  15.763722066062777927    15.763722    15.763722    636.29143    696.46598    682.99597    529.41234   -1695.2365    218.88846 
    4150  15.763763827622213398    15.763764    15.763764    597.50684    548.57937    684.88015      559.061   -1695.1572     216.7693 
    4160  15.764153244312769431    15.764153    15.764153    390.62256    268.47237    514.11625    389.27905   -1695.1801    217.82262 
    4170  15.764766546150951854    15.764767    15.764767    77.633721   -78.163545    220.10066    90.964047   -1695.3356    222.99561 
    4180  15.765423775343810675    15.765424    15.765424   -191.47898   -363.19928   -61.259069    -149.9786   -1695.5249    229.23163 
    4190  15.765972472660578774    15.765972    15.765972   -286.99004   -480.02349   -143.95782    -236.9888   -1695.5749    231.14593 
    4200  15.766357403178785646    15.766357    15.766357   -219.28328   -450.13138    28.716296   -236.43477   -1695.3829    225.54161 
    4210  15.766613474545739138    15.766613    15.766613   -128.46012   -414.87612    283.91075   -254.41498   -1695.0101    214.30846 
    4220  15.766789119016548781    15.766789    15.766789   -145.28521   -481.64001    374.54558   -328.76121   -1694.6434    203.24482 
    4230  15.766874747579553429    15.766875    15.766875   -279.62176   -603.09594    227.35889   -463.12822   -1694.4765    198.37441 
    4240  15.766797515348585534    15.766798    15.766798   -428.72572   -637.84335    2.9025301   -651.23634   -1694.6147    202.98413 
    4250  15.766477253108089229    15.766477    15.766477   -485.04568    -518.9844   -120.36388   -815.78875   -1695.0462    216.72222 
    4260  15.765886557005639901    15.765887    15.765887   -402.61827   -311.09177    -93.84241   -802.92064   -1695.6407    235.54468 
    4270  15.765079333815087637    15.765079    15.765079   -159.29342   -83.656558     89.68799   -483.91168   -1696.1647    252.20306 
    4280  15.764203396253220646    15.764203    15.764203    257.47495    195.90856    452.64843    123.86787   -1696.3735    259.09146 
    4290  15.763502681523522853    15.763503    15.763503     783.2101    579.18065    943.19955     827.2501   -1696.1587    252.81892 
    4300  15.763275242374191976    15.763275    15.763275    1227.9373    958.97949    1371.5635    1353.2688    -1695.609    236.11817 
    4310  15.763762245686272934    15.763762    15.763762    1312.3865    1034.9906    1445.0652    1457.1038   -1694.9352    215.52024 
    4320  15.764992022938995930    15.764992    15.764992    823.73719    525.93443     965.7801    979.49703   -1694.3649    198.09829 
    4330  15.766669398931490775    15.766669    15.766669   -158.69642   -497.26294    68.487005   -47.313338   -1694.0729    189.31442 
    4340  15.768229220260320034    15.768229    15.768229   -1222.3397   -1551.1425   -844.97855    -1270.898     -1694.14     191.7066 
    4350  15.769069872827627066     15.76907     15.76907   -1880.3735    -2137.045   -1386.2731   -2117.8023   -1694.5459    204.64582 
    4360  15.768826662594005228    15.768827    15.768827    -1862.346   -2055.7702   -1376.1989   -2155.0689   -1695.1886    224.94241 
    4370  15.767523799368332149    15.767524    15.767524   -1210.7729   -1389.9888   -852.58952   -1389.7404   -1695.8947    247.21786 
    4380  15.765548593395447341    15.765549    15.765549   -185.01732   -374.63037    23.786743   -204.20833     -1696.42    263.91498 
    4390  15.763500811954676450    15.763501    15.763501    904.49865    705.06499    1022.6538    985.77721   -1696.4968    266.71427 
    4400  15.762011783953923327    15.762012    15.762012    1807.4105    1634.0017    1852.2462    1935.9835   -1695.9914    251.43863 
    4410  15.761593654104922635    15.761594    15.761594    2284.2445     2210.938    2198.5616    2443.2338    -1695.101    224.14981 
    4420  15.762497504926360037    15.762498    15.762498    2056.7518     2114.979    1833.5365      2221.74    -1694.319    200.14721 
    4430  15.764563050009341438    15.764563    15.764563    990.77068    1103.7395    764.88081    1103.6917   -1694.0939     193.3994 
    4440  15.767159338531012480    15.767159    15.767159   -632.32506   -590.80491   -688.31616   -617.85412   -1694.4896    205.98139 
    4450  15.769357156172429058    15.769357    15.769357   -2105.6835   -2221.4422   -1944.7731   -2150.8352    -1695.151    226.89291 
    4460  15.770330536098937202    15.770331    15.770331   -2679.7741   -2973.6105   -2420.2602   -2645.4517   -1695.5558    239.85611 
    4470  15.769772134469400626    15.769772    15.769772   -2077.6548   -2503.5995   -1909.6263   -1819.7386   -1695.3779    234.67669 
    4480  15.768038834989326347    15.768039    15.768039   -708.62077   -1184.9287   -718.63675   -222.29688   -1694.7739    216.22825 
    4490  15.765914412672891842    15.765914    15.765914    616.70195    158.89091    547.01181    1144.2031   -1694.3209    202.48193 
    4500  15.764153288321665514    15.764153    15.764153    1253.5309    882.35903    1314.1945     1564.039   -1694.5137    208.80745 
    4510  15.763122013609741856    15.763122    15.763122     1131.483    939.00556    1352.4768    1102.9666   -1695.2884    233.22251 
    4520  15.762761466133575539    15.762761    15.762761    701.90343     738.3103    936.44846    430.95154   -1696.0745    258.01412 
    4530  15.762836931051065648    15.762837    15.762837    501.85678    696.38396    612.54156    196.64483   -1696.2713    264.52184 
    4540  15.763232383359520483    15.763232    15.763232     680.7813    877.51768    664.44999    500.37625   -1695.7095    247.45382 
    4550  15.764031206351138081    15.764031    15.764031    899.31478    970.50466    853.66207     873.7776   -1694.7755    218.78211 
    4560  15.765331917067808121    15.765332    15.765332    684.50821     568.3128    736.09355    749.11827   -1694.1292     199.0005 
    4570  15.766991367125484658    15.766991    15.766991   -137.17677   -483.47797    112.12403   -40.176383    -1694.196    201.36287 
    4580  15.768535308358725189    15.768535    15.768535   -1252.9324   -1868.6122   -767.22746   -1122.9575     -1694.83    221.38121 
    4590  15.769338557828351810    15.769339    15.769339   -2040.5125   -2874.4992   -1363.6267   -1883.4115   -1695.4792    241.90847 
    4600  15.768972291251806439    15.768972    15.768972   -2001.0139    -2831.576   -1278.5109   -1892.9547    -1695.681    248.53765 
    4610  15.767478556017437086    15.767479    15.767479   -1101.6692   -1639.4852   -539.90471   -1125.6177    -1695.393    239.92773 
    4620  15.765382407725693881    15.765382    15.765382    220.50951    104.62737     481.0931    75.808055   -1694.9358    226.06082 
    4630  15.763441938151650845    15.763442    15.763442       1362.5    1534.4493    1353.9391    1199.1115   -1694.6955    218.94572 
    4640  15.762306623132086969    15.762307    15.762307     1900.353    2115.2256    1783.3187    1802.5146   -1694.8368    223.68753 
    4650  15.762277460060353462    15.762277    15.762277    1746.1459    1864.8002    1672.1439    1701.4938   -1695.2125    235.69494 
    4660  15.763257743465196370    15.763258    15.763258    1092.3421    1093.0791     1139.809    1044.1382   -1695.5107    245.28809 
    4670  15.764864214754620519    15.764864    15.764864    257.23867    99.375256    472.00307    200.33767   -1695.5051    245.45986 
    4680  15.766609823490913556     15.76661     15.76661   -480.92793   -881.62482    -55.36762   -505.79134   -1695.2019    236.39734 
    4690  15.768063676068482692    15.768064    15.768064   -985.60307    -1611.918   -365.14262   -979.74863   -1694.7981    224.20289 
    4700  15.768932858142552078    15.768933    15.768933   -1229.3859   -1871.3787   -543.42081   -1273.3581   -1694.5143    215.71863 
    4710  15.769081240005171196    15.769081    15.769081   -1215.0186   -1590.7316   -648.23289   -1406.0915   -1694.4436     213.8366 
    4720  15.768527097066993292    15.768527    15.768527   -950.62576   -945.50872   -608.42927   -1297.9393   -1694.5375    217.05749 
    4730  15.767434839717772377    15.767435    15.767435   -474.60351   -260.43786   -311.53153   -851.84113   -1694.6955    222.27881 
    4740  15.766088133601627419    15.766088    15.766088    107.72537    226.19953    234.16238   -137.18579   -1694.8488    227.37072 
    4750  15.764825719898501788    15.764826    15.764826     624.8041     469.1193    858.31728     546.9757   -1694.9921    232.16852 
    4760  15.763942716797707533    15.763943    15.763943    905.76253    505.72927    1305.7247    905.83365   -1695.1548    237.57843 
    4770  15.763595672868001785    15.763596    15.763596    880.11396    364.22391    1392.8022     883.3158   -1695.3201    243.06961 
    4780  15.763766498177982811    15.763766    15.763766    640.38869    135.08846    1156.2146    629.86307   -1695.3897    245.58604 
    4790  15.764316921085200107    15.764317    15.764317    388.12689    5.7367712    813.81085    344.83306   -1695.2683    242.16232 
    4800  15.765100375639359953      15.7651      15.7651    267.65042     95.72399    558.72348    148.50378    -1694.972    233.29947 
    4810  15.766040262026326246     15.76604     15.76604    233.57682    257.97626    399.07295    43.681255   -1694.6555    223.79216 
    4820  15.767103641752740373    15.767104    15.767104    78.370441     118.5739      177.642   -61.104578   -1694.5507    220.85762 
    4830  15.768186649054682036    15.768187    15.768187   -398.92256   -598.44884   -283.34479   -314.97404   -1694.8276    229.78351 
    4840  15.769008678264000878    15.769009    15.769009   -1161.2068   -1710.2533   -975.71003   -797.65694   -1695.4089     248.1894 
    4850  15.769143411899008811    15.769143    15.769143   -1810.7133   -2553.5915   -1546.5919   -1331.9565   -1695.9132    264.21649 
    4860  15.768246569815511648    15.768247    15.768247   -1776.8242   -2419.6425   -1445.8838   -1464.9462   -1695.8695    263.20611 
    4870  15.766368621451860577    15.766369    15.766369   -767.24092   -1119.3474   -410.44925   -771.92608   -1695.0944    239.44717 
    4880  15.764102650298646324    15.764103    15.764103    878.62702    793.20755    1156.4813    686.19218    -1693.931    203.62338 
    4890  15.762380977112560032    15.762381    15.762381    2304.5074    2327.3872    2392.2198    2193.9153    -1693.104    178.24461 
    4900  15.761993515834914703    15.761994    15.761994      2687.26    2673.8035    2591.2819    2796.6947   -1693.2298    182.42397 
    4910  15.763135151547471580    15.763135    15.763135    1804.4441    1719.6486    1660.5447    2033.1389   -1694.3342    216.97551 
    4920  15.765290940639314243    15.765291    15.765291    172.82362    65.129743    150.69695    302.64418   -1695.7859     262.3859 
    4930  15.767529503145652825     15.76753     15.76753   -1340.7796   -1447.9278   -1124.3168   -1450.0941   -1696.7305    292.14732 
    4940  15.768990254154257258     15.76899     15.76899   -2078.1629   -2248.6456   -1605.8842   -2379.9588     -1696.66    290.41154 
    4950  15.769256016453313762    15.769256    15.769256   -1889.4397   -2231.8856   -1237.3117   -2199.1217    -1695.692    260.73989 
    4960  15.768439826136066984     15.76844     15.76844   -1065.2318   -1622.5907   -361.06588   -1212.0388   -1694.4157    221.40884 
    4970  15.767019441505556898    15.767019    15.767019   -76.287718   -748.12809    548.29228   -29.027343   -1693.4849    192.76546 
    4980  15.765566181171935867    15.765566    15.765566     669.4416    76.696547    1127.2775    804.35077   -1693.2731    186.45092 
    4990  15.764510510195883342    15.764511    15.764511    980.62879    623.54775    1251.7167    1066.6219   -1693.7545    201.68862 
    5000  15.764034022261467882    15.764034    15.764034     929.6993    860.97557    1033.6782    894.44409   -1694.5887    227.91445 
    5010  15.764110701979987539    15.764111    15.764111    746.77592    941.58854    708.05062    590.68861   -1695.3387    251.55571 
    5020  15.764633507524635547    15.764634    15.764634     588.1767    970.34192    443.09028    351.09791   -1695.7177    263.69556 
    5030  15.765499443613377295    15.765499    15.765499    386.75013    815.97418    200.12792    144.14828   -1695.7197    264.12774 
    5040  15.766575863378726297    15.766576    15.766576   -28.286493     258.4501   -176.00645   -167.30312   -1695.5455    259.07927 
    5050  15.767614652247910811    15.767615    15.767615   -651.55179   -657.02323   -690.82297   -606.80915   -1695.3736    254.09625 
    5060  15.768264186735802213    15.768264    15.768264   -1169.9897   -1457.9286   -1085.6803   -966.36005   -1695.1811    248.45952 
    5070  15.768244825622041105    15.768245    15.768245    -1176.831   -1562.9361    -1038.983   -928.57375   -1694.8162    237.45155 
    5080  15.767567628621197429    15.767568    15.767568   -568.58717   -848.96704   -475.21593   -381.57854   -1694.2599    220.47315 
    5090  15.766581448483522720    15.766581    15.766581    275.32253    173.57945    291.89031    360.49784   -1693.7677    205.47185 
    5100  15.765759468405885713    15.765759    15.765759    792.38426    831.01153    783.55945    762.58178   -1693.6957    203.52627 
    5110  15.765390666365416195    15.765391    15.765391    719.61848    831.84493    772.88908    554.12144   -1694.1687    218.51218 
    5120  15.765437243732261408    15.765437    15.765437     280.0527     397.8546    437.06446    5.2390484   -1694.9209    242.19576 
    5130  15.765658237299804867    15.765658    15.765658    -64.71372   -19.761673    135.91266   -310.29215   -1695.4709     259.6299 
    5140  15.765861818403259065    15.765862    15.765862   -50.000443   -148.03334    83.013018   -84.981001    -1695.488    260.52362 
    5150  15.766050330279041347     15.76605     15.76605    195.13665   -54.542616    211.68194    428.27063   -1695.0495    247.25674 
    5160  15.766350901720612043    15.766351    15.766351    329.34195   -14.455132    300.71717    701.76381   -1694.5714    232.73329 
    5170  15.766828711989656853    15.766829    15.766829    116.80594    -245.6263    191.88976    404.15435   -1694.4513    229.31292 
    5180  15.767359159013050629    15.767359    15.767359   -371.41902   -674.58869   -91.023551   -348.64481   -1694.7339    238.40614 
    5190  15.767670875704268951    15.767671    15.767671   -794.25204   -967.02667   -361.41574   -1054.3137   -1695.1033    250.21196 
    5200  15.767535092869147562    15.767535    15.767535    -810.6274   -827.48558   -390.77936   -1213.6173   -1695.1956    253.41523 
    5210  15.766952397128743968    15.766952    15.766952   -348.37056   -268.67313   -46.259666   -730.17887   -1694.9204    245.19949 
    5220  15.766189232080296989    15.766189    15.766189    340.22165    365.71537    575.38163    79.567955   -1694.4981    232.40428 
    5230  15.765632657052638166    15.765633    15.765633    829.60273    619.72966    1120.8861    748.19245   -1694.2334    224.49196 
    5240  15.765551870849032312    15.765552    15.765552    802.79409    257.04219    1213.3851    937.95498    -1694.276    226.11791 
    5250  15.765926012277978074    15.765926    15.765926     297.1178   -549.03347    804.59502    635.79184   -1694.5219    234.06069 
    5260  15.766469046646708563    15.766469    15.766469   -320.35595   -1298.8939    225.32109    112.50501   -1694.6894    239.58046 
    5270  15.766836473172629596    15.766836    15.766836    -616.9552   -1475.0064   -90.398807    -285.4604   -1694.5729    236.28896 
    5280  15.766864790080099112    15.766865    15.766865    -422.1176   -940.10162     35.61543   -361.86662   -1694.2954    227.98906 
    5290  15.766660648475712136    15.766661    15.766661     9.681781   -115.22006    367.67514   -223.40973   -1694.2447    226.72478 
    5300  15.766460205679283746     15.76646     15.76646    255.40491    363.23688      513.397   -110.41915   -1694.6724    240.32644 
    5310  15.766400230187757714      15.7664      15.7664    153.12566    221.53321    332.77735   -94.933562   -1695.3832    262.74183 
    5320  15.766430180400178074     15.76643     15.76643   -78.263907   -244.86407    59.025214   -48.952869   -1695.8594    277.89439 
    5330  15.766428753038002952    15.766429    15.766429   -127.84459   -528.10208    17.338627    127.22968   -1695.6973    273.22203 
[...]
    8640  15.771042843564483604    15.771043    15.771043   -912.63295   -870.70585   -905.29842   -961.89458   -1694.0498    306.49936 
    8650  15.771710648254195775    15.771711    15.771711   -1787.4822   -1769.2755   -1555.5719   -2037.5991   -1694.6984    326.87449 
    8660  15.771366503589771213    15.771367    15.771367   -1737.5748   -1734.2072   -1406.7783    -2071.739   -1694.6959    327.00142 
    8670  15.770054237833274868    15.770054    15.770054   -770.09179   -791.04001   -582.33068   -936.90468   -1694.0871    308.27003 
    8680  15.768328462376921095    15.768328    15.768328    518.83252    428.25013    450.23029    678.01714   -1693.2488    282.41022 
    8690  15.766921394001556678    15.766921    15.766921    1457.9412    1272.5066    1202.4929    1898.8242   -1692.6485    263.94761 
    8700  15.766367524655819921    15.766368    15.766368    1750.8231    1508.6594    1445.9468    2297.8631    -1692.555    261.21571 
    8710  15.766831652779664807    15.766832    15.766832    1473.7722    1282.8304     1223.982    1914.5042   -1692.8885     271.7241 
    8720  15.768146633819936753    15.768147    15.768147    832.13442    823.73269    670.29288    1002.3777   -1693.3066    284.86293 
    8730  15.769931497824384081    15.769931    15.769931    11.867453    232.92066   -100.54746   -96.770845   -1693.4867    290.62592 
    8740  15.771703163285966554    15.771703    15.771703   -829.90783   -492.65223   -943.04037   -1054.0309   -1693.3765    287.39854 
    8750  15.772973397766030246    15.772973    15.772973    -1510.271   -1257.6216   -1632.2036   -1640.9877   -1693.1664    281.07128 
    8760  15.773356896238791336    15.773357    15.773357    -1831.388    -1779.411   -1956.3473   -1758.4056   -1693.0699    278.25725 
    8770  15.772681803001106005    15.772682    15.772682   -1680.6958   -1774.6533   -1817.2332   -1450.2011   -1693.1582    281.15417 
    8780  15.771052473804367366    15.771052    15.771052   -1054.0081   -1132.1199   -1209.8085   -820.09584    -1693.328    286.56973 
    8790  15.768850168740588202     15.76885     15.76885   -16.088016    67.855966   -174.84224    58.722231   -1693.3871    288.56588 
    8800  15.766687072420181082    15.766687    15.766687    1236.6164    1490.6018    1163.1737    1056.0739   -1693.2215     283.6177 
    8810  15.765279048898044323    15.765279    15.765279    2248.1141    2480.1505     2423.858    1840.3339   -1692.9556    275.56866 
    8820  15.765182177082126103    15.765182    15.765182    2445.8856    2367.9521    2992.6318    1977.0728   -1692.8986    273.97347 
    8830  15.766481900759131918    15.766482    15.766482    1595.3525      1056.59    2473.3256    1256.1419   -1693.2159    283.96119 
    8840  15.768677501038396827    15.768678    15.768678    99.746714   -797.50648    1116.1673   -19.420638   -1693.6906     298.8526 
    8850  15.770915182721401138    15.770915    15.770915    -1237.526   -2258.2398   -328.44862   -1125.8896   -1693.9075    305.79101 
    8860  15.772435630018094344    15.772436    15.772436   -1812.2079   -2778.6283   -1159.7029   -1498.2924    -1693.648    297.94604 
    8870  15.772908324039150330    15.772908    15.772908   -1632.5111   -2473.6533   -1209.1014   -1214.7787   -1693.0767    280.38285 
    8880  15.772431260799514519    15.772431    15.772431   -1129.5068   -1776.0232    -826.8039   -785.69329   -1692.5729    264.88493 
    8890  15.771298393109770331    15.771298    15.771298   -626.54272   -977.45509   -375.82725   -526.34584   -1692.4073    259.88392 
    8900  15.769816897060298544    15.769817    15.769817   -122.01145   -164.56148    97.041781   -298.51464   -1692.5995    266.00213 
    8910  15.768294395180280532    15.768294    15.768294    460.88281    554.52991    660.82718    167.29136   -1693.0184     279.1863 
    8920  15.767069657554255713     15.76707     15.76707     1002.272     962.4803    1199.9736    844.36215   -1693.5114    294.69332 
    8930  15.766446064199161725    15.766446    15.766446     1272.184    941.08683    1473.2752    1402.1899   -1693.9518    308.56756 
    8940  15.766570694413401199    15.766571    15.766571    1197.3741    658.29092     1359.584    1574.2474   -1694.2113    316.81219 
    8950  15.767396277947620220    15.767396    15.767396    911.92658    398.26734    967.93609    1369.5763   -1694.1385    314.71841 
    8960  15.768750541105191587    15.768751    15.768751    527.98315     211.6814    478.26814    893.99991   -1693.6824     300.7077 
    8970  15.770396926958998307    15.770397    15.770397    4.3943209   -111.14494    -15.96667    140.29457   -1693.0384    280.85433 
    8980  15.772019151013589422    15.772019    15.772019   -700.46061   -691.52858    -506.9481   -902.90514   -1692.5294    265.20131 
    8990  15.773209024416740220    15.773209    15.773209   -1416.9437   -1316.0403   -951.21452   -1983.5764   -1692.3234    258.96016 
    9000  15.773566846281914522    15.773567    15.773567   -1795.4928   -1620.5493   -1175.7935   -2590.1357   -1692.3629    260.34095 
    9010  15.772892752129648031    15.772893    15.772893   -1601.4922   -1430.3546   -1029.1884   -2344.9335   -1692.5468    266.19348 
    9020  15.771311918174900413    15.771312    15.771312   -919.80899   -822.35044   -571.50796   -1365.5686   -1692.8457    275.61043 
    9030  15.769226228641468168    15.769226    15.769226   -28.139073    45.923937    12.238647    -142.5798   -1693.2407    288.03783 
    9040  15.767158667747319001    15.767159    15.767159    847.28688    1064.0323    586.29293    891.53539   -1693.6488    300.90432 
    9050  15.765619254409326544    15.765619    15.765619    1564.4807     2045.751    1097.9101    1549.7808   -1693.9359    310.02791 
    9060  15.765013947932565941    15.765014    15.765014    1931.6205     2562.012    1458.8246     1774.025   -1693.9884    311.84899 
    9070  15.765535501187315504    15.765536    15.765536    1753.5654    2220.3794    1500.1532    1540.1634   -1693.7753    305.38799 
    9080  15.767065281275673527    15.767065    15.767065    1080.9904    1169.9762    1158.5735    914.42146   -1693.3738    293.04387 
    9090  15.769208843595741598    15.769209    15.769209    231.51608    41.746168    557.60882    95.193251   -1692.9225     279.1573 
    9100  15.771470262434142739     15.77147     15.77147   -519.85439    -700.7336   -150.73686   -708.09272   -1692.5531    267.83278 
    9110  15.773404562811524698    15.773405    15.773405   -1153.2595   -1171.4534   -874.93752   -1413.3875    -1692.394    263.05964 
    9120  15.774635906638803107    15.774636    15.774636   -1768.1004   -1719.3145   -1565.8119   -2019.1747   -1692.5621    268.45427 
    9130  15.774814671174537395    15.774815    15.774815   -2272.7611   -2289.9678   -2129.2597   -2399.0558   -1693.0304      283.162 
    9140  15.773676328786640610    15.773676    15.773676   -2299.6206   -2376.0649   -2287.6935   -2235.1035   -1693.5661    299.92629 
    9150  15.771243842564771853    15.771244    15.771244   -1478.6091   -1561.9828   -1648.9953   -1224.8491   -1693.8719    309.52533 
    9160  15.768021356507500030    15.768021    15.768021     166.0447    24.091814   -70.320403    544.36269   -1693.7645    306.32621 
    9170  15.764962757540809335    15.764963    15.764963    2059.7008    1739.6135    1999.4134    2440.0754   -1693.2968    292.00688 
    9180  15.763140896679207259    15.763141    15.763141    3387.0282    2837.2021    3688.3343    3635.5483   -1692.7668    275.76751 
    9190  15.763289554907933265     15.76329     15.76329    3551.4476    2858.7182    4188.6809    3606.9437   -1692.5232    268.33646 
    9200  15.765470731678822958    15.765471    15.765471    2423.3493    1772.6303    3137.6367    2359.7809   -1692.7011    273.91314 
    9210  15.769010482244143034     15.76901     15.76901    389.12776   -61.006662    874.70856    353.68138   -1693.1589    288.21001 
    9220  15.772728196691559788    15.772728    15.772728   -1789.1894    -2002.438    -1645.266   -1719.8642   -1693.6254    302.89939 
    9230  15.775375665336863307    15.775376    15.775376    -3290.702    -3341.966   -3386.1633   -3143.9767   -1693.8501    310.13892 
    9240  15.776107502585297482    15.776108    15.776108   -3565.2971    -3589.997   -3717.7069   -3388.1874   -1693.6947    305.50648 
    9250  15.774790755216482552    15.774791    15.774791   -2572.8841   -2724.6898     -2603.76   -2390.2024   -1693.2198    290.85083 
    9260  15.772016864368051614    15.772017    15.772017   -817.21173    -1187.365   -576.82656   -687.44362   -1692.6778     274.0901 
    9270  15.768806335015687736    15.768806    15.768806    938.76149    434.51637    1490.9504     890.8177   -1692.3403    263.74632 
    9280  15.766171594380143262    15.766172    15.766172    2086.5658     1674.308    2824.8737    1760.5157   -1692.3519    264.30354 
    9290  15.764769378929404553    15.764769    15.764769    2397.8527    2236.9343    3111.6033    1845.0206   -1692.7196    275.91679 
    9300  15.764772691696368412    15.764773    15.764773    2023.2904    2057.8873    2572.1987    1439.7852   -1693.2693    293.14137 
    9310  15.765958273703880366    15.765958    15.765958    1308.0881    1324.4134    1714.2825    885.56835   -1693.6551    305.25659 
    9320  15.767902011673164964    15.767902    15.767902    529.16689    347.92865     892.3953    347.17671   -1693.6346    304.75651 
    9330  15.770137304615165164    15.770137    15.770137   -239.37705   -624.44406    106.67054   -200.35762   -1693.3201    295.14072 
    9340  15.772204670906303292    15.772205    15.772205   -1018.3453   -1498.8679   -736.65542   -819.51264   -1693.0252     286.1433 
    9350  15.773650138069967852     15.77365     15.77365   -1718.8906   -2231.7184   -1509.7636   -1415.1897   -1692.9168    282.94777 
    9360  15.774081420878736992    15.774081    15.774081    -2080.818   -2638.9412    -1875.315   -1728.1978   -1692.9336    283.62016 
    9370  15.773312964998330798    15.773313    15.773313   -1833.7544   -2380.8262   -1569.2467   -1551.1903   -1692.9645    284.70199 
    9380  15.771511172820794400    15.771511    15.771511   -930.39715   -1302.7533   -641.15942   -847.27874   -1692.9633    284.77225 
    9390  15.769210396235596505     15.76921     15.76921    333.99535    243.58691    540.37353    218.02559   -1692.9199    283.55982 
    9400  15.767138960274182935    15.767139    15.767139    1451.3957     1602.974    1497.8692    1253.3439   -1692.8593    281.84954 
    9410  15.765929953818591969     15.76593     15.76593    1973.2812    2231.5216    1880.5295    1807.7925   -1692.8967    283.19147 
    9420  15.765870015933559856     15.76587     15.76587    1735.5173    1922.5645    1610.9428    1673.0446   -1693.1775    292.06464 
    9430  15.766811461968938346    15.766811    15.766811    918.63874    848.24509    911.84129    995.82985   -1693.6704    307.50955 
    9440  15.768278787543351882    15.768279    15.768279   -70.758058   -503.35322    154.48408    136.59496   -1694.1013    321.03872 
    9450  15.769703918858494873    15.769704    15.769704    -776.4182   -1428.1806   -373.74317   -527.33085   -1694.1452    322.56125 
    9460  15.770686281814585428    15.770686    15.770686   -901.85028   -1357.6444   -589.33962   -758.56681   -1693.6698    307.94972 
    9470  15.771153998957291975    15.771154    15.771154   -527.80761   -353.56068   -592.01992   -637.84223   -1692.8576    282.85706 
    9480  15.771313544581786914    15.771314    15.771314   -73.580862    793.77196   -507.26984   -507.24471   -1692.1157    259.93457 
    9490  15.771414877937480981    15.771415    15.771415    27.038701    1136.7671    -395.1997    -660.4513    -1691.811    250.58859 
    9500  15.771512437024657771    15.771512    15.771512   -329.37586    414.45811   -322.11801   -1080.4677   -1692.0476    258.05584 
    9510  15.771411885449609258    15.771412    15.771412   -825.94709   -710.99072    -348.6122   -1418.2384   -1692.6493    276.87858 
    9520  15.770846789048459158    15.770847    15.770847    -1000.922   -1326.8194   -386.44821   -1289.4982   -1693.2902    296.92192 
    9530  15.769732259320251799    15.769732    15.769732   -632.47928    -1057.083    -193.0297   -647.32519   -1693.6658    308.72932 
    9540  15.768287322087811475    15.768287    15.768287    145.07991   -170.37929    411.92372     193.6953   -1693.6635    308.80489 
    9550  15.766958996542975058    15.766959    15.766959    996.91951    817.80548    1283.8063    889.14679    -1693.413     301.1839 
    9560  15.766231259545097743    15.766231    15.766231    1587.0186     1509.188    1958.3551    1293.5127   -1693.1243    292.36714 
    9570  15.766432608205512622    15.766433    15.766433    1701.2584    1715.0371    2004.6178    1384.1205   -1692.8849    285.05552 
    9580  15.767614757289292626    15.767615    15.767615    1293.5538    1384.7203    1360.6448    1135.2963   -1692.6788    278.75634 
    9590  15.769528237280413308    15.769528    15.769528     462.6391    565.62576    320.90611    501.38544   -1692.5649    275.32795 
    9600  15.771681654351358048    15.771682    15.771682   -601.67453   -564.98347   -744.64413   -495.39598   -1692.7026    279.73929 
    9610  15.773455862228487945    15.773456    15.773456   -1637.1762   -1684.3902   -1582.2411   -1644.8973   -1693.1421    293.55676 
    9620  15.774260710577468814    15.774261    15.774261   -2313.6346   -2402.7714   -2023.2721   -2514.8602   -1693.6834    310.53212 
    9630  15.773726661664273507    15.773727    15.773727   -2307.7201   -2407.0956   -1918.8924   -2597.1723     -1694.01    320.80499 
    9640  15.771885058283357850    15.771885    15.771885   -1463.8596   -1576.8427   -1180.6072    -1634.129   -1693.9236    318.21154 
    9650  15.769246026731682520    15.769246    15.769246    53.009847   -85.045203    111.59326    132.48148    -1693.429    302.95006 
    9660  15.766692155837979783    15.766692    15.766692    1744.0209    1620.7539    1582.7014    2028.6075   -1692.6886    280.10361 
    9670  15.765185519401939018    15.765186    15.765186    2933.8138    2922.8843    2622.2556    3256.3017   -1692.0005    258.89736 
    9680  15.765382829491723982    15.765383    15.765383    3048.2704    3197.9863    2718.2956    3228.5294    -1691.732    250.66064 
    9690  15.767317249294258374    15.767317    15.767317    1904.8467    2149.1134    1699.5178    1865.9088   -1692.0878    261.75776 
    9700  15.770310117646509696     15.77031     15.77031   -91.893841    133.40305   -119.93968   -289.14489   -1692.9049    287.22666 
    9710  15.773212312320159967    15.773212    15.773212   -2070.5204   -1928.9315    -1974.438   -2308.1915   -1693.7355    313.21248 
    9720  15.774900348323759758      15.7749      15.7749   -3160.4411   -3107.6712   -3030.9276   -3342.7245   -1694.1542    326.43258 
    9730  15.774767298123940407    15.774767    15.774767   -2960.2352   -3008.3629   -2893.4823   -2978.8605   -1693.9876    321.39254 
    9740  15.772948564163325358    15.772949    15.772949   -1653.8997   -1851.4325   -1721.7803   -1388.4863   -1693.3484    301.61133 
    9750  15.770211499248929954    15.770211    15.770211    168.82846   -195.46084    6.1530121    695.79319   -1692.5697    277.51438 
    9760  15.767609512898150825     15.76761     15.76761    1779.5319    1312.8407     1725.176     2300.579   -1692.0659    262.01538 
    9770  15.766060337096446275     15.76606     15.76606    2573.4639    2115.2966    2889.5883    2715.5068   -1692.1219    263.91744 
    9780  15.766002147510686626    15.766002    15.766002    2271.8344    1925.5505     3042.212    1847.7407   -1692.7109    282.33641 
    9790  15.767245394623497390    15.767245    15.767245    1077.9935    873.49479    2090.2837    270.20191    -1693.496    306.82442 
    9800  15.769101002543916223    15.769101    15.769101   -348.41679   -488.30546    558.99169   -1115.9366   -1694.0376    323.77351 
    9810  15.770756354021475687    15.770756    15.770756   -1270.6371   -1446.9297   -679.39236   -1685.5892   -1694.0486    324.27162 
    9820  15.771686656335548449    15.771687    15.771687   -1357.0465    -1576.239   -1096.4011   -1398.4996   -1693.5282    308.25299 
    9830  15.771839240139623683    15.771839    15.771839   -835.89879   -1005.0281   -841.18761   -661.48065   -1692.7459    284.07287 
    9840  15.771506091950239892    15.771506    15.771506   -227.28163   -286.06732   -404.69973    8.9221566   -1692.1133    264.52767 
    9850  15.771033789333838371    15.771034    15.771034    83.278563    46.134366   -100.16206    303.86338   -1691.9438    259.36604 
    9860  15.770605390138900503    15.770605    15.770605    48.909151   -132.47119     73.49649    205.70215   -1692.2424    268.75052 
    9870  15.770210319505270746     15.77021     15.77021   -128.27373   -504.32778    252.63659      -133.13   -1692.7506    284.65287 
    9880  15.769756738483906133    15.769757    15.769757    -192.9553   -629.96652    489.88646   -438.78583   -1693.1922    298.49828 
    9890  15.769213676847158467    15.769214    15.769214   -26.515224   -337.96125    658.38096   -399.96538   -1693.4366    306.22124 
    9900  15.768676596671589607    15.768677    15.768677     289.0499    171.67068    633.88772    61.591286   -1693.4809    307.72881 
    9910  15.768323340701837054    15.768323    15.768323    588.35366    564.96949    531.21493    668.87657   -1693.3841    304.84993 
    9920  15.768321730036678474    15.768322    15.768322    746.64012     651.7844    566.99582    1021.1401   -1693.2208    299.89832 
    9930  15.768757078062229482    15.768757    15.768757    702.68586    475.75495    726.71715    905.58547   -1693.0467    294.60154 
    9940  15.769596285840588479    15.769596    15.769596    436.78245     202.5124    703.79855    404.03639   -1692.9049    290.30588 
    9950  15.770675870412500075    15.770676    15.770676   -62.349676   -120.94002    185.50402   -251.61302   -1692.8542    288.84119 
    9960  15.771699964390592186      15.7717      15.7717   -737.70946   -582.09227   -758.77242    -872.2637   -1692.9399    291.61986 
    9970  15.772282911790782123    15.772283    15.772283   -1334.0923   -1102.1738   -1600.0225   -1300.0806   -1693.1114    297.06877 
    9980  15.772099296227505505    15.772099    15.772099   -1450.6552   -1329.0916    -1720.149    -1302.725   -1693.2009    299.95643 
    9990  15.771102942150200477    15.771103    15.771103   -868.64879   -973.57297   -930.20914   -702.16426   -1693.0514    295.40777 
    9999  15.769789634942316781     15.76979     15.76979    80.353815   -227.65243    230.20719    238.50669   -1692.7373    285.74315 
Loop time of 2.02772 on 4 procs for 9999 steps with 250 atoms

Performance: 426.051 ns/day, 0.056 hours/ns, 4931.143 timesteps/s
96.2% CPU use with 4 MPI tasks x no OpenMP threads

MPI task timing breakdown:
Section |  min time  |  avg time  |  max time  |%varavg| %total
---------------------------------------------------------------
Pair    | 1.1354     | 1.3288     | 1.5357     |  12.4 | 65.53
Neigh   | 0          | 0          | 0          |   0.0 |  0.00
Comm    | 0.33611    | 0.52489    | 0.70085    |  18.1 | 25.89
Output  | 0.054945   | 0.056238   | 0.059921   |   0.9 |  2.77
Modify  | 0.07365    | 0.089692   | 0.10619    |   5.1 |  4.42
Other   |            | 0.02813    |            |       |  1.39

Nlocal:    62.5 ave 90 max 40 min
Histogram: 1 0 0 0 2 0 0 0 0 1
Nghost:    1281.5 ave 1304 max 1254 min
Histogram: 1 0 0 0 0 0 2 0 0 1
Neighs:    4250 ave 5801 max 2935 min
Histogram: 1 0 0 1 1 0 0 0 0 1

Total # of neighbors = 17000
Ave neighs/atom = 68
Neighbor list builds = 0
Dangerous builds = 0

#-------------------------------------------------
Total wall time: 0:00:02
